/*--------------------------------*- C++ -*----------------------------------*\
| =========                 |                                                 |
| \\      /  F ield         | OpenFOAM: The Open Source CFD Toolbox           |
|  \\    /   O peration     | Version:  5.x                                   |
|   \\  /    A nd           | Web:      www.OpenFOAM.org                      |
|    \\/     M anipulation  |                                                 |
\*---------------------------------------------------------------------------*/
FoamFile
{
    version     2.0;
    format      ascii;
    class       volScalarField;
    location    "0.9";
    object      gradTx;
}
// * * * * * * * * * * * * * * * * * * * * * * * * * * * * * * * * * * * * * //

dimensions      [0 -1 0 1 0 0 0];

internalField   nonuniform List<scalar> 
25000
(
5289.97
2568.8
1649.53
1246.44
1030.41
898.336
810.649
749.255
704.662
671.326
645.715
625.407
608.628
594.003
580.414
566.918
552.692
537.007
519.212
498.719
475.004
447.602
416.112
380.199
339.593
294.098
243.592
188.026
127.433
61.9188
-8.33708
-83.0864
-162.022
-244.788
-331.003
-420.276
-512.249
-606.638
-703.307
-802.366
-904.339
-1010.43
-1123.01
-1246.52
-1389.46
-1569.02
-1824.01
-2256.89
-3196.29
-5927.61
10840.5
6587.54
4645.74
3635.23
3045.99
2671.25
2417.61
2238.22
2107.13
2008.77
1932.99
1872.79
1822.95
1779.45
1738.96
1698.69
1656.19
1609.29
1556.04
1494.68
1423.66
1341.57
1247.23
1139.62
1017.94
881.609
730.253
563.737
382.152
185.822
-24.7133
-248.706
-485.23
-733.218
-991.51
-1258.93
-1534.38
-1816.99
-2106.3
-2402.57
-2707.25
-3023.71
-3358.58
-3724.19
-4143.45
-4660.55
-5366.56
-6466.36
-8468.51
-12751.9
14436.1
9671.92
7221
5822.4
4955.22
4382.2
3985.14
3700.11
3489.84
3331
3208.07
3110.01
3028.58
2957.26
2890.69
2824.29
2754.03
2676.36
2588.05
2486.21
2368.23
2231.83
2075
1896.09
1693.77
1467.05
1215.34
938.406
636.415
309.906
-40.2097
-412.681
-805.952
-1218.23
-1647.55
-2091.93
-2549.48
-3018.65
-3498.57
-3989.43
-4493.26
-5015
-5564.38
-6159.26
-6831.92
-7641.82
-8703.31
-10250.5
-12801.8
-17616.7
17105.4
12138.8
9429.24
7793.63
6733.01
6008.91
5495.57
5121.17
4841.86
4629.18
4463.54
4330.77
4219.99
4122.53
4031.16
3939.64
3842.48
3734.76
3612.04
3470.31
3305.98
3115.85
2897.17
2647.61
2365.33
2048.99
1697.74
1311.29
889.873
434.251
-54.2834
-573.96
-1122.58
-1697.6
-2296.23
-2915.62
-3553.02
-4206.12
-4873.41
-5554.77
-6252.36
-6971.87
-7724.77
-8531.9
-9430.14
-10485.1
-11817
-13660.2
-16509.9
-21547.2
19257.3
14197.6
11349.3
9568.85
8377.17
7542.39
6938.74
6491.9
6154.81
5895.94
5692.97
5529.31
5392.02
5270.57
5156.06
5040.76
4917.81
4781
4624.75
4443.97
4234.09
3991.06
3711.38
3392.09
3030.84
2625.94
2176.31
1681.6
1142.12
558.873
-66.4545
-731.563
-1433.59
-2169.21
-2934.79
-3726.52
-4540.75
-5374.24
-6224.68
-7091.33
-7975.98
-8884.33
-9828.31
-10829.7
-11926.6
-13185.3
-14724.7
-16771.1
-19799.1
-24949.4
21081.7
15973.7
13046.6
11176
9896.12
8981.97
8310.22
7806.53
7422.68
7125.49
6890.9
6700.57
6539.94
6396.94
6261.23
6123.73
5976.32
5811.61
5622.9
5404.09
5149.69
4854.81
4515.22
4127.36
3688.41
3196.3
2649.79
2048.43
1392.65
683.705
-76.3251
-884.591
-1737.55
-2631.07
-3560.59
-4521.36
-5508.68
-6518.28
-7546.87
-8592.79
-9657.04
-10744.7
-11867.2
-13045.8
-14317.8
-15748
-17451
-19645.3
-22791.1
-28009.4
22678.2
17542.9
14568.6
12640.7
11301.5
10331.2
9609.15
9062.01
8641.41
8313.38
8052.79
7840.09
7659.43
7497.48
7342.67
7184.72
7014.34
6823.06
6603.14
6347.51
6049.8
5704.32
5306.15
4851.15
4336.03
3758.4
3116.81
2410.8
1640.88
808.588
-83.5938
-1032.25
-2033.13
-3081.27
-4171.19
-5297.07
-6453.12
-7633.94
-8835.07
-10053.7
-11289.7
-12547.1
-13836.2
-15176.8
-16604.6
-18181.6
-20018.4
-22326.8
-25558.3
-30823.2
24104.2
18952.5
15949
13984.1
12604.8
11595.1
10836.6
10257
9808.34
9456.24
9174.91
8943.95
8746.53
8568.27
8396.52
8219.95
8028.21
7811.82
7562.07
7270.99
6931.35
6536.73
6081.53
5561.05
4971.57
4310.4
3575.9
2767.59
1886.11
933.25
-88.0649
-1173.85
-2319.12
-3518.09
-4764.26
-6050.78
-7370.66
-8717.27
-10084.9
-11469.4
-12869.3
-14287.1
-15731.6
-17221.1
-18789
-20494.3
-22444.2
-24845.5
-28143.9
-33444.2
25395
20233.2
17211.1
15222
13815.7
12778.7
11994.4
11391.3
10921.7
10551.4
10254.1
10008.7
9797.6
9605.58
9419.04
9225.7
9014.27
8774.32
8496.23
8171.19
7791.18
7349.05
6838.58
6254.54
5592.8
4850.37
4025.47
3117.59
2127.51
1057.31
-89.6527
-1308.8
-2594.44
-3939.89
-5337.67
-6779.8
-8258.1
-9764.65
-11292.3
-12835.6
-14391.4
-15960.8
-17550.8
-19177.6
-20872.6
-22692.3
-24740.5
-27220.6
-30574.5
-35903.6
26573.6
21405.3
18371.4
16366.4
14942.2
13886.7
13084.4
12464.7
11980.3
11596.7
11287.5
11031.1
10809.2
10605.8
10406.6
10198.3
9968.85
9706.93
9402.09
9044.7
8626
8138.17
7574.4
6928.95
6197.32
5376.23
4463.77
3459.44
2364.15
1180.28
-88.3798
-1436.65
-2858.1
-4345.17
-5889.39
-7481.62
-9112.46
-10772.7
-12453.6
-14148.4
-15852.3
-17564.8
-19290.9
-21045.2
-22856.7
-24779.6
-26915.3
-29464.3
-32866
-38219.7
27655
22482.7
19441.2
17426.1
15990.3
14922.6
14108.3
13477.5
12983
12590.3
12272.7
12008.3
11778.1
11565.6
11355.5
11134.1
10888.3
10606
10276
9887.98
9432.42
8900.88
8285.97
7581.51
6782.62
5885.78
4888.97
3791.68
2594.98
1301.55
-84.3719
-1557.02
-3109.22
-4732.54
-6417.49
-8153.83
-9930.88
-11738
-13565.3
-15404.2
-17248.5
-19095.7
-20949.5
-22822.3
-24741.2
-26758.4
-28973
-31583.7
-35027.7
-40402.9
28649.6
23474.9
20428.7
18407.4
16964.3
15889
15067.3
14429.6
13928.7
13530.3
13207.2
12937.3
12701.1
12481.4
12262.4
12029.4
11768.8
11467.8
11114.4
10697.5
10207
9633.84
8970.16
8209.32
7346.09
6376.73
5299.11
4112.73
2818.85
1420.43
-77.8487
-1669.63
-3347.01
-5100.68
-6920.17
-8794.1
-10710.6
-12657.7
-14623.9
-16599.4
-18576.1
-20550.3
-22523.5
-24506.6
-26524.9
-28628.7
-30915.5
-33581.9
-37064.1
-42458.7
29564.4
24388.2
21339.5
19314.6
17867.4
16787.9
15962.1
15320.6
14816.4
14414.9
14088.8
13815.5
13575.1
13349.9
13123.5
12880.6
12606.8
12288.6
11913.4
11469.5
10946.1
10333.7
9623.78
8809.41
7885.02
6846.67
5692.13
4420.95
3034.52
1536.13
-69.1117
-1774.28
-3570.74
-5448.36
-7395.68
-9400.22
-11448.9
-13528.4
-15626.1
-17730.2
-19831.7
-21924.8
-24009.6
-26095.4
-28205.8
-30389.4
-32742.3
-35459.8
-38976.6
-44388.8
30404.1
25227.2
22177.2
20150.6
18701.7
17620.3
16793
16150.1
15644.7
15242.2
14915
14640
14397.1
14167.9
13935.5
13684
13398.4
13064.7
12669.4
12200.4
11646.3
10996.9
10243.6
9378.74
8396.65
7293.15
6065.93
4714.59
3240.7
1647.81
-58.5306
-1870.83
-3779.78
-5774.41
-7842.32
-9969.99
-12143.1
-14347.3
-16568.3
-18793.2
-21011.3
-23215.4
-25404.2
-27585.3
-29780.8
-32038.1
-34451.8
-37215.9
-40764.5
-46192.7
31171.7
25994.7
22944.3
20917.4
19468.2
18386.8
17559.6
16917.1
16412.3
16010.3
15683.4
15408.2
15163.9
14932
14694.9
14436.1
14140.1
13792.3
13378.7
12886.5
12303.8
11620.2
10826.2
9914.26
8878.17
7713.66
6418.36
4991.91
3436.02
1754.56
-46.5276
-1959.21
-3973.53
-6077.72
-8258.49
-10501.3
-12790.8
-15111.2
-17447.3
-19784.6
-22111.1
-24418.3
-26703.3
-28972.4
-31246.5
-33571.5
-36040.8
-38847.8
-42425.3
-47868.1
31869.2
26692.3
23642.3
21615.9
20167.5
19087.2
18261.4
17620.6
17117.6
16717.3
16391.8
16117.3
15872.7
15639
15398.2
15133.3
14828.2
14467.8
14037.5
13524.1
12915.3
12200
11368.5
10412.9
9326.8
8105.73
6747.27
5251.11
3619.13
1855.46
-33.5613
-2039.4
-4151.46
-6357.25
-8642.62
-10992.1
-13389.3
-15817.3
-18259.6
-20700.7
-23127.2
-25529.2
-27902.7
-30252.6
-32598.6
-34985.5
-37505.7
-40351.6
-43955.6
-49411.7
32497.6
27321.1
24271.8
22246.6
20799.7
19721.3
18897.7
18259.4
17758.9
17361.1
17037.7
16764.6
16520.6
16285.9
16042.2
15772.2
15459.2
15087.6
14642.4
14109.8
13477.2
12733
11867.3
10871.8
9739.82
8466.9
7050.52
5490.43
3788.65
1949.57
-20.1111
-2111.38
-4313.07
-6612
-8993.23
-11440.4
-13936.1
-16462.6
-19002.1
-21537.9
-24055.6
-26544
-28998.1
-31421.4
-33832.7
-36275.8
-38842.1
-41723.3
-45351.1
-50819.3
33057.3
27881.3
24833
22809.2
21364.3
20288.2
19467.4
18832
18334.5
17939.6
17618.8
17347.7
17104.6
16869.5
16623.8
16349.6
16029.8
15648.3
15189.9
14640.2
13986.2
13216
12319.5
11287.9
10114.6
8794.8
7326.07
5708.17
3943.26
2035.97
-6.66029
-2175.19
-4457.92
-6841.03
-9308.89
-11844.3
-14429.1
-17044.3
-19671.4
-22292.7
-24892.5
-27458.7
-29985.1
-32474.5
-34944.3
-37437.7
-40045.4
-42958.1
-46607.3
-52086.2
33548.4
28372.9
25325.7
23303.6
21860.8
20787.3
19969.3
19337
18842.8
18451
18132.9
17863.9
17622.1
17387.2
17140
16862.2
16536.7
16146.7
15676.7
15112
14439.2
13646.1
12722.2
11658.6
10448.6
9087.21
7571.97
5902.69
4081.69
2113.78
6.31828
-2230.87
-4585.6
-7043.5
-9588.28
-12202.1
-14865.8
-17559.9
-20264.7
-22961.6
-25634.1
-28269.2
-30859.6
-33407.3
-35928.9
-38466.7
-41110.8
-44051.4
-47719.4
-53207.8
33970.6
28795.7
25749.6
23729.1
22288.4
21217.4
20402.2
19773
19281.9
18893.2
18577.9
18311.2
18070.8
17836.2
17587.9
17307.4
16977.1
16579.9
16100
15522.4
14833.3
14020.3
13072.7
11981.5
10739.5
9342.05
7786.41
6072.5
4202.75
2182.17
18.3771
-2278.47
-4695.75
-7218.61
-9830.2
-12512
-15244.3
-18006.7
-20778.9
-23541.5
-26277
-28971.7
-31617.6
-34215.7
-36782.1
-39358.3
-42033.8
-44998.5
-48682.7
-54179.4
34323.5
29149.1
26104
24085.1
22646.3
21577.6
20765.1
20138.7
19650.6
19264.6
18951.9
18687.3
18448.3
18214.2
17965.2
17682.6
17348.3
16945.2
16457.1
15868.6
15165.9
14336.2
13368.7
12254.2
10985.4
9557.45
7967.76
6216.24
4305.39
2240.4
29.1067
-2318.03
-4788.05
-7365.67
-10033.6
-12772.7
-15562.7
-18382.7
-21211.7
-24029.5
-26818
-29562.9
-32255.3
-34895.9
-37499.9
-40108.4
-42810.3
-45795.1
-49493
-54996.5
34606.6
29432.6
26388.5
24370.8
22933.7
21867
21056.8
20432.9
19947.2
19563.7
19253.2
18990.4
18752.8
18519.2
18269.8
17985.5
17648.1
17240.3
16745.6
16148.5
15434.8
14591.7
13608.1
12474.7
11184.3
9731.8
8114.62
6332.71
4388.67
2287.81
38.1476
-2349.61
-4862.22
-7484.07
-10197.4
-12982.8
-15819.5
-18686
-21560.7
-24423
-27254.4
-30039.7
-32769.7
-35444.4
-38078.7
-40713.1
-43436.3
-46437.4
-50146.3
-55655.3
34819.4
29645.8
26602.4
24585.7
23149.9
22084.9
21276.5
20654.5
20170.8
19789.2
19480.5
19219.2
18982.6
18749.5
18499.8
18214.3
17874.7
17463.4
16963.7
16360.1
15638.1
14784.9
13789.2
12641.6
11334.8
9863.78
8225.82
6420.95
4451.83
2323.85
45.1996
-2373.26
-4918.05
-7573.31
-10321
-13141.4
-16013.3
-18914.8
-21824.1
-24720.1
-27583.7
-30399.6
-33157.9
-35858.4
-38515.5
-41169.6
-43908.8
-46922.1
-50639.3
-56152.4
34961.5
29788.2
26745.2
24729.3
23294.5
22230.5
21423.3
20802.7
20320.3
19940.1
19632.6
19372.3
19136.5
18903.7
18653.9
18367.6
18026.5
17612.9
17109.9
16501.9
15774.5
14914.5
13910.7
12753.6
11435.9
9952.34
8300.46
6480.2
4494.26
2348.12
50.0307
-2389.01
-4955.37
-7633.03
-10403.8
-13247.6
-16143.1
-19068.1
-22000.6
-24919.1
-27804.3
-30640.6
-33417.9
-36135.7
-38808.1
-41475.2
-44225.2
-47246.7
-50969.4
-56485.4
35032.7
29859.4
26816.7
24801.2
23366.8
22303.4
21496.9
20876.9
20395.3
20015.8
19708.8
19449.1
19213.6
18981.1
18731.1
18444.5
18102.7
17687.9
17183.3
16573.1
15842.9
14979.5
13971.7
12809.8
11486.5
9996.8
8337.94
6509.96
4515.58
2360.32
52.4825
-2396.88
-4974.07
-7662.96
-10445.2
-13300.8
-16208.1
-19145
-22089
-25018.9
-27914.9
-30761.4
-33548.3
-36274.7
-38954.8
-41628.5
-44383.8
-47409.5
-51134.9
-56652.3
35032.7
29859.5
26816.7
24801.2
23366.8
22303.4
21496.9
20876.9
20395.3
20015.8
19708.9
19449.1
19213.6
18981.1
18731.1
18444.5
18102.7
17687.9
17183.3
16573.1
15842.9
14979.5
13971.7
12809.8
11486.5
9996.8
8337.93
6509.95
4515.57
2360.31
52.4749
-2396.88
-4974.08
-7662.97
-10445.2
-13300.8
-16208.1
-19145
-22089.1
-25018.9
-27915
-30761.5
-33548.3
-36274.7
-38954.8
-41628.5
-44383.8
-47409.5
-51134.9
-56652.3
34961.5
29788.2
26745.2
24729.3
23294.5
22230.5
21423.3
20802.7
20320.4
19940.1
19632.6
19372.4
19136.5
18903.7
18653.9
18367.6
18026.6
17612.9
17109.9
16501.9
15774.5
14914.5
13910.7
12753.6
11435.8
9952.33
8300.45
6480.19
4494.25
2348.1
50.0081
-2389.03
-4955.4
-7633.06
-10403.8
-13247.6
-16143.1
-19068.1
-22000.6
-24919.1
-27804.4
-30640.6
-33417.9
-36135.7
-38808.1
-41475.2
-44225.2
-47246.7
-50969.4
-56485.3
34819.4
29645.8
26602.4
24585.7
23150
22084.9
21276.5
20654.5
20170.8
19789.3
19480.5
19219.2
18982.6
18749.5
18499.8
18214.3
17874.7
17463.4
16963.7
16360.1
15638.1
14784.9
13789.2
12641.6
11334.8
9863.76
8225.8
6420.93
4451.8
2323.82
45.1624
-2373.3
-4918.1
-7573.36
-10321.1
-13141.4
-16013.3
-18914.9
-21824.2
-24720.1
-27583.8
-30399.6
-33157.9
-35858.4
-38515.5
-41169.5
-43908.8
-46922.1
-50639.2
-56152.4
34606.6
29432.7
26388.5
24370.8
22933.7
21867.1
21056.8
20432.9
19947.2
19563.8
19253.2
18990.5
18752.8
18519.2
18269.8
17985.5
17648.2
17240.4
16745.6
16148.5
15434.8
14591.7
13608.1
12474.7
11184.3
9731.78
8114.6
6332.68
4388.63
2287.76
38.0963
-2349.67
-4862.28
-7484.13
-10197.5
-12982.9
-15819.6
-18686
-21560.7
-24423.1
-27254.4
-30039.7
-32769.7
-35444.4
-38078.7
-40713.1
-43436.3
-46437.4
-50146.2
-55655.2
34323.5
29149.1
26104.1
24085.1
22646.3
21577.6
20765.1
20138.8
19650.6
19264.7
18951.9
18687.3
18448.4
18214.2
17965.3
17682.6
17348.3
16945.2
16457.1
15868.6
15165.9
14336.2
13368.7
12254.1
10985.4
9557.42
7967.73
6216.19
4305.34
2240.34
29.0422
-2318.1
-4788.12
-7365.74
-10033.6
-12772.8
-15562.8
-18382.8
-21211.7
-24029.5
-26818.1
-29562.9
-32255.4
-34895.9
-37499.9
-40108.3
-42810.2
-45795.1
-49492.9
-54996.4
33970.6
28795.7
25749.6
23729.1
22288.4
21217.4
20402.3
19773.1
19282
18893.2
18577.9
18311.2
18070.8
17836.2
17588
17307.5
16977.1
16580
16100
15522.4
14833.3
14020.3
13072.7
11981.5
10739.5
9342.02
7786.37
6072.45
4202.7
2182.1
18.3004
-2278.55
-4695.84
-7218.7
-9830.29
-12512.1
-15244.4
-18006.8
-20779
-23541.5
-26277.1
-28971.8
-31617.6
-34215.7
-36782.1
-39358.3
-42033.8
-44998.4
-48682.6
-54179.3
33548.4
28373
25325.8
23303.6
21860.8
20787.3
19969.3
19337
18842.8
18451
18132.9
17864
17622.2
17387.2
17140
16862.3
16536.7
16146.8
15676.8
15112
14439.2
13646.1
12722.2
11658.6
10448.6
9087.18
7571.93
5902.64
4081.62
2113.7
6.23065
-2230.97
-4585.7
-7043.61
-9588.39
-12202.2
-14865.9
-17559.9
-20264.8
-22961.7
-25634.2
-28269.2
-30859.6
-33407.3
-35928.9
-38466.7
-41110.7
-44051.3
-47719.3
-53207.7
33057.3
27881.3
24833
22809.3
21364.3
20288.3
19467.4
18832
18334.6
17939.7
17618.8
17347.7
17104.6
16869.6
16623.9
16349.6
16029.8
15648.3
15189.9
14640.2
13986.2
13216.1
12319.5
11287.9
10114.6
8794.77
7326.02
5708.11
3943.19
2035.88
-6.75749
-2175.3
-4458.03
-6841.15
-9309.01
-11844.4
-14429.2
-17044.4
-19671.5
-22292.8
-24892.5
-27458.8
-29985.1
-32474.5
-34944.3
-37437.7
-40045.3
-42958
-46607.2
-52086.1
32497.6
27321.1
24271.8
22246.6
20799.7
19721.3
18897.8
18259.4
17759
17361.2
17037.7
16764.7
16520.6
16286
16042.3
15772.3
15459.3
15087.6
14642.4
14109.9
13477.2
12733
11867.3
10871.8
9739.79
8466.86
7050.47
5490.36
3788.57
1949.47
-20.2163
-2111.5
-4313.19
-6612.13
-8993.36
-11440.5
-13936.3
-16462.7
-19002.2
-21538
-24055.7
-26544.1
-28998.1
-31421.4
-33832.7
-36275.7
-38842
-41723.2
-45351
-50819.2
31869.2
26692.3
23642.3
21616
20167.6
19087.3
18261.5
17620.7
17117.7
16717.4
16391.8
16117.3
15872.8
15639.1
15398.3
15133.4
14828.3
14467.8
14037.6
13524.2
12915.3
12200
11368.6
10412.9
9326.78
8105.69
6747.21
5251.04
3619.05
1855.36
-33.673
-2039.52
-4151.59
-6357.39
-8642.76
-10992.2
-13389.4
-15817.4
-18259.8
-20700.8
-23127.3
-25529.2
-27902.7
-30252.6
-32598.5
-34985.4
-37505.6
-40351.5
-43955.5
-49411.6
31171.7
25994.7
22944.4
20917.5
19468.2
18386.8
17559.6
16917.2
16412.4
16010.4
15683.5
15408.2
15164
14932.1
14694.9
14436.2
14140.2
13792.3
13378.7
12886.5
12303.9
11620.2
10826.2
9914.26
8878.15
7713.62
6418.31
4991.84
3435.94
1754.46
-46.6439
-1959.34
-3973.67
-6077.87
-8258.64
-10501.4
-12790.9
-15111.4
-17447.4
-19784.7
-22111.2
-24418.3
-26703.3
-28972.4
-31246.4
-33571.4
-36040.7
-38847.6
-42425.2
-47868
30404.1
25227.3
22177.2
20150.7
18701.7
17620.4
16793
16150.2
15644.8
15242.3
14915
14640.1
14397.2
14168
13935.6
13684.1
13398.5
13064.7
12669.5
12200.4
11646.3
10997
10243.6
9378.74
8396.62
7293.11
6065.87
4714.52
3240.61
1647.7
-58.6499
-1870.96
-3779.92
-5774.56
-7842.47
-9970.14
-12143.3
-14347.4
-16568.4
-18793.3
-21011.4
-23215.5
-25404.2
-27585.3
-29780.8
-32038.1
-34451.6
-37215.8
-40764.3
-46192.5
29564.4
24388.3
21339.5
19314.6
17867.5
16788
15962.2
15320.7
14816.5
14414.9
14088.9
13815.5
13575.2
13350
13123.6
12880.7
12606.8
12288.7
11913.5
11469.5
10946.2
10333.7
9623.8
8809.41
7885
6846.63
5692.07
4420.87
3034.43
1536.02
-69.2321
-1774.41
-3570.89
-5448.51
-7395.83
-9400.37
-11449
-13528.6
-15626.2
-17730.4
-19831.8
-21924.8
-24009.7
-26095.4
-28205.7
-30389.4
-32742.2
-35459.6
-38976.5
-44388.6
28649.6
23474.9
20428.8
18407.4
16964.4
15889.1
15067.4
14429.6
13928.8
13530.3
13207.3
12937.4
12701.2
12481.5
12262.4
12029.5
11768.9
11467.9
11114.4
10697.5
10207
9633.87
8970.18
8209.32
7346.07
6376.7
5299.05
4112.66
2818.76
1420.32
-77.9683
-1669.76
-3347.15
-5100.83
-6920.33
-8794.26
-10710.7
-12657.8
-14624.1
-16599.5
-18576.2
-20550.3
-22523.5
-24506.6
-26524.9
-28628.6
-30915.3
-33581.8
-37063.9
-42458.5
27655
22482.7
19441.2
17426.1
15990.3
14922.6
14108.4
13477.6
12983
12590.4
12272.8
12008.3
11778.2
11565.6
11355.6
11134.2
10888.3
10606.1
10276.1
9888.04
9432.47
8900.91
8285.98
7581.51
6782.6
5885.75
4888.92
3791.61
2594.89
1301.45
-84.489
-1557.15
-3109.36
-4732.69
-6417.65
-8153.98
-9931.03
-11738.2
-13565.5
-15404.3
-17248.6
-19095.8
-20949.5
-22822.3
-24741.1
-26758.3
-28972.9
-31583.5
-35027.5
-40402.7
26573.6
21405.3
18371.4
16366.4
14942.3
13886.7
13084.4
12464.8
11980.4
11596.8
11287.6
11031.2
10809.3
10605.9
10406.7
10198.4
9968.93
9707
9402.15
9044.75
8626.05
8138.21
7574.41
6928.96
6197.3
5376.2
4463.73
3459.37
2364.07
1180.18
-88.4926
-1436.78
-2858.24
-4345.32
-5889.54
-7481.77
-9112.61
-10772.8
-12453.8
-14148.5
-15852.4
-17564.8
-19291
-21045.2
-22856.7
-24779.6
-26915.2
-29464.2
-32865.9
-38219.5
25395
20233.2
17211.1
15222
13815.8
12778.8
11994.4
11391.3
10921.8
10551.5
10254.1
10008.8
9797.68
9605.66
9419.13
9225.79
9014.35
8774.39
8496.3
8171.25
7791.23
7349.08
6838.6
6254.54
5592.79
4850.34
4025.43
3117.53
2127.43
1057.22
-89.7594
-1308.92
-2594.57
-3940.03
-5337.82
-6779.95
-8258.25
-9764.78
-11292.4
-12835.7
-14391.5
-15960.9
-17550.8
-19177.6
-20872.6
-22692.2
-24740.4
-27220.5
-30574.3
-35903.4
24104.2
18952.5
15949
13984.1
12604.8
11595.1
10836.6
10257.1
9808.4
9456.3
9174.98
8944.03
8746.61
8568.35
8396.6
8220.03
8028.28
7811.89
7562.13
7271.04
6931.4
6536.76
6081.55
5561.06
4971.57
4310.38
3575.87
2767.54
1886.04
933.165
-88.1639
-1173.96
-2319.25
-3518.22
-4764.4
-6050.91
-7370.79
-8717.4
-10085
-11469.5
-12869.3
-14287.2
-15731.7
-17221.1
-18788.9
-20494.3
-22444.1
-24845.4
-28143.8
-33444.1
22678.2
17542.9
14568.6
12640.8
11301.5
10331.2
9609.19
9062.06
8641.46
8313.44
8052.86
7840.16
7659.5
7497.56
7342.74
7184.79
7014.41
6823.12
6603.2
6347.56
6049.84
5704.35
5306.17
4851.16
4336.02
3758.38
3116.78
2410.75
1640.82
808.511
-83.6833
-1032.35
-2033.24
-3081.39
-4171.31
-5297.2
-6453.24
-7634.06
-8835.18
-10053.8
-11289.8
-12547.2
-13836.2
-15176.8
-16604.6
-18181.6
-20018.4
-22326.7
-25558.1
-30823.1
21081.7
15973.7
13046.6
11176
9896.14
8982
8310.26
7806.57
7422.73
7125.54
6890.95
6700.64
6540.01
6397.01
6261.3
6123.8
5976.38
5811.67
5622.95
5404.14
5149.73
4854.84
4515.24
4127.37
3688.41
3196.29
2649.76
2048.39
1392.6
683.638
-76.4038
-884.68
-1737.65
-2631.17
-3560.7
-4521.48
-5508.79
-6518.39
-7546.97
-8592.88
-9657.12
-10744.8
-11867.2
-13045.8
-14317.8
-15747.9
-17451
-19645.2
-22791
-28009.3
19257.3
14197.6
11349.3
9568.87
8377.19
7542.41
6938.77
6491.93
6154.85
5895.99
5693.02
5529.37
5392.08
5270.63
5156.12
5040.82
4917.86
4781.06
4624.8
4444.01
4234.13
3991.09
3711.4
3392.1
3030.84
2625.92
2176.29
1681.56
1142.07
558.816
-66.5209
-731.639
-1433.67
-2169.3
-2934.88
-3726.62
-4540.84
-5374.33
-6224.77
-7091.41
-7976.04
-8884.39
-9828.35
-10829.7
-11926.6
-13185.2
-14724.7
-16771
-19799
-24949.3
17105.4
12138.8
9429.25
7793.64
6733.02
6008.93
5495.59
5121.2
4841.9
4629.21
4463.58
4330.81
4220.04
4122.58
4031.21
3939.69
3842.53
3734.8
3612.08
3470.35
3306.01
3115.87
2897.18
2647.62
2365.33
2048.98
1697.73
1311.27
889.837
434.206
-54.3364
-574.021
-1122.65
-1697.67
-2296.31
-2915.7
-3553.1
-4206.19
-4873.48
-5554.84
-6252.41
-6971.92
-7724.8
-8531.91
-9430.13
-10485
-11817
-13660.1
-16509.9
-21547.2
14436.1
9671.93
7221.01
5822.41
4955.23
4382.21
3985.16
3700.13
3489.86
3331.03
3208.1
3110.04
3028.62
2957.3
2890.73
2824.32
2754.07
2676.39
2588.08
2486.24
2368.25
2231.84
2075.02
1896.1
1693.77
1467.04
1215.32
938.386
636.389
309.874
-40.2484
-412.725
-806.001
-1218.28
-1647.61
-2091.98
-2549.53
-3018.71
-3498.62
-3989.48
-4493.3
-5015.03
-5564.41
-6159.27
-6831.91
-7641.8
-8703.27
-10250.4
-12801.8
-17616.6
10840.5
6587.54
4645.74
3635.24
3046
2671.25
2417.62
2238.23
2107.15
2008.78
1933.01
1872.81
1822.98
1779.47
1738.98
1698.71
1656.21
1609.31
1556.05
1494.7
1423.67
1341.58
1247.24
1139.62
1017.94
881.606
730.246
563.725
382.137
185.802
-24.7369
-248.733
-485.26
-733.25
-991.544
-1258.97
-1534.42
-1817.02
-2106.33
-2402.6
-2707.27
-3023.73
-3358.6
-3724.2
-4143.45
-4660.54
-5366.54
-6466.33
-8468.48
-12751.9
5289.97
2568.8
1649.53
1246.44
1030.41
898.339
810.653
749.259
704.667
671.331
645.721
625.414
608.635
594.01
580.422
566.925
552.699
537.014
519.218
498.725
475.008
447.605
416.115
380.2
339.593
294.097
243.589
188.023
127.428
61.9122
-8.34498
-83.0954
-162.032
-244.799
-331.014
-420.288
-512.261
-606.65
-703.318
-802.376
-904.348
-1010.44
-1123.01
-1246.53
-1389.46
-1569.02
-1824
-2256.88
-3196.28
-5927.6
2573.88
1895.15
1442.73
1168.62
996.006
881.39
801.801
744.59
702.333
670.377
645.616
625.846
609.412
595.01
581.564
568.155
553.976
538.309
520.509
499.99
476.233
448.773
417.21
381.21
340.503
294.893
244.259
188.553
127.809
62.1342
-8.28916
-83.2095
-162.315
-245.244
-331.605
-420.995
-513.037
-607.417
-703.955
-802.688
-904.018
-1008.93
-1119.35
-1238.85
-1373.84
-1536.07
-1747.75
-2051.73
-2524.33
-3213.23
6601.91
5235.55
4154.1
3430.78
2950.67
2623.01
2392.09
2224.68
2100.37
2006.04
1932.76
1874.14
1825.33
1782.48
1742.41
1702.4
1660.04
1613.19
1559.92
1498.49
1427.34
1345.08
1250.52
1142.65
1020.67
883.991
732.252
565.316
383.278
186.466
-24.5707
-249.076
-486.111
-734.587
-993.32
-1261.09
-1536.75
-1819.34
-2108.28
-2403.6
-2706.4
-3019.41
-3348.06
-3702.18
-4099.17
-4569.57
-5166.77
-5979.61
-7121.58
-8518.44
9694.38
8013.54
6565.23
5531.48
4813.43
4308.41
3945.45
3678.89
3479.24
3326.81
3207.87
3112.37
3032.59
2962.35
2896.46
2830.47
2760.45
2682.86
2594.52
2492.55
2374.36
2237.67
2080.48
1901.13
1698.3
1471.01
1218.66
941.033
638.288
310.978
-39.9737
-413.299
-807.422
-1220.51
-1650.58
-2095.55
-2553.46
-3022.64
-3501.97
-3991.33
-4492.2
-5008.51
-5548.17
-6125.41
-6764.71
-7507.24
-8420.12
-9602.85
-11151.9
-12883.5
12168.2
10337.8
8682.59
7447.78
6558.61
5915.94
5444.79
5093.84
4828.28
4623.99
4463.65
4334.28
4225.72
4129.71
4039.27
3948.31
3851.46
3743.85
3621.08
3479.17
3314.54
3124.01
2904.81
2654.65
2371.67
2054.53
1702.39
1314.96
892.488
435.747
-53.9561
-574.83
-1124.64
-1700.81
-2300.48
-2920.72
-3558.67
-4211.81
-4878.38
-5557.81
-6251.53
-6964.01
-7704.44
-8489.29
-9346.37
-10320.7
-11482
-12924.9
-14720.7
-16622
14233.1
12325.9
10552.1
9189.13
8181.01
7435.89
6879.91
6460.11
6139.16
5890.28
5693.68
5534.15
5399.57
5279.89
5166.52
5051.92
4929.34
4792.66
4636.34
4455.33
4245.06
4001.52
3721.18
3401.11
3038.96
2633.03
2182.26
1686.3
1145.47
560.788
-66.0389
-732.684
-1436.25
-2173.35
-2940.28
-3733.14
-4548.1
-5381.73
-6231.38
-7095.8
-7975.91
-8876.02
-9805.49
-10781.3
-11831.9
-13002
-14358.9
-15988.4
-17942.5
-19940.5
16014.6
14065
12220.7
10775.6
9685.94
8866.42
8245.91
7771.79
7405.84
7119.88
6892.51
6706.91
6549.4
6408.44
6274.06
6137.37
5990.38
5825.82
5637.01
5417.91
5163.04
4867.53
4527.14
4138.34
3698.29
3204.94
2657.03
2054.15
1396.73
686.035
-75.8242
-885.966
-1740.8
-2636.14
-3567.34
-4529.51
-5517.79
-6527.68
-7555.48
-8598.98
-9658.24
-10736.8
-11843.4
-12994.2
-14216.6
-15553.5
-17067.6
-18837.1
-20900.8
-22960.9
17588.4
15614
13726.3
12228.1
11082.6
10209.9
9541.43
9025.6
8624.17
8308.3
8055.6
7848.09
7670.88
7511.21
7357.88
7200.82
7030.92
6839.79
6619.75
6363.77
6065.5
5719.28
5320.17
4864.06
4347.64
3768.55
3125.33
2417.53
1645.68
811.324
-83.011
-1033.88
-2036.98
-3087.28
-4179.19
-5306.77
-6464.04
-7645.32
-8845.75
-10061.9
-11292.7
-12540.4
-13812.6
-15124.1
-16500.2
-17981.2
-19625.6
-21505.4
-23651
-25755.4
19002.1
17012.5
15097.4
13564.2
12380.8
11470.5
10767
10220
9791.36
9452.08
9179.15
8953.76
8760.05
8584.25
8414.11
8238.5
8047.27
7831.03
7581.13
7289.64
6949.37
6553.88
6097.61
5575.85
4984.89
4322.04
3585.67
2775.31
1891.61
936.386
-87.4036
-1175.73
-2323.57
-3525.03
-4773.53
-6062.05
-7383.42
-8730.71
-10097.8
-11479.8
-12874.3
-14282.2
-15709.3
-17168.7
-18683.7
-20291.5
-22047.1
-24017.8
-26228.6
-28367.3
20286.3
18287.1
16354.4
14798.2
13589
12652.5
11924.1
11354.3
10905.5
10548.5
10259.9
10020.4
9813.23
9623.82
9438.99
9246.68
9035.78
8795.97
8517.7
8192.19
7811.45
7368.35
6856.67
6271.19
5607.79
4863.47
4036.46
3126.27
2133.7
1060.84
-88.916
-1310.94
-2599.47
-3947.75
-5348.19
-6792.65
-8272.73
-9780.2
-11307.5
-12848.4
-14398.8
-15958.1
-17530.4
-19126.7
-20768.2
-22489.4
-24342.3
-26390.8
-28656.2
-30823.2
21461.5
19456.1
17512.1
15940.7
14714.3
13760
13014.3
12428.5
11965.2
11595.3
11295.1
11044.8
10827
10626.3
10428.9
10221.7
9992.75
9730.95
9425.89
9067.97
8648.47
8159.56
7594.44
6947.41
6213.92
5390.74
4475.96
3469.06
2371.01
1184.18
-87.5705
-1439.04
-2863.71
-4353.95
-5901.15
-7496.03
-9128.95
-10790.3
-12471.2
-14163.7
-15862.4
-17564.7
-19273
-20996.6
-22754.1
-24578.2
-26518
-28634.9
-30947.7
-33138.9
22541.5
20532.3
18580.9
16999.9
15762.2
14796.2
14039
13442.3
12969.3
12590.5
12282.2
12024
11798
11588.3
11380.1
11159.8
10914.5
10632.3
10302.1
9913.47
9457.01
8924.28
8307.91
7601.71
6800.8
5901.67
4902.31
3802.21
2602.49
1305.82
-83.4926
-1559.65
-3115.4
-4742.21
-6430.48
-8169.78
-9949.21
-11757.8
-13585.2
-15422.1
-17261.2
-19098.5
-20934.4
-22776.4
-24641.2
-26559.3
-28577.9
-30756.1
-33111
-35323.7
23535.9
21524.2
19568.5
17981.4
16736.8
15763.5
14999.1
14395.8
13916.6
13532.2
13218.6
12955
12723.1
12506.3
12289.1
12057.3
11797.3
11496.3
11142.6
10725.1
10233.6
9659.2
8993.93
8231.2
7365.78
6393.94
5313.55
4124.15
2826.98
1425.06
-76.9018
-1672.49
-3353.73
-5111.22
-6934.34
-8811.56
-10730.7
-12679.6
-14646.2
-16619.9
-18591.7
-20555.9
-22511.4
-24463.7
-26427.9
-28432.6
-30523.1
-32757.1
-35150
-37382
24451.1
22438.1
20479.9
18889.4
17640.9
16663.5
15895.2
15288.3
14805.9
14418.6
14102.1
13835.2
13599.2
13376.9
13152.4
12910.6
12637.4
12319.3
11943.8
11499.1
10974.7
10360.9
9649.29
8832.89
7906.16
6865.15
5707.64
4433.21
3043.26
1541.1
-68.0995
-1777.36
-3577.99
-5459.73
-7410.99
-9419.13
-11470.8
-13552.4
-15650.7
-17753.3
-19850
-21933.4
-24000.7
-26055.7
-28112.1
-30196.6
-32353.2
-34638.1
-37065.8
-39315.3
25291.7
23278.1
21318.6
19726.5
18476.3
17497.2
16727.5
16119.3
15635.9
15247.7
14930.1
14661.6
14423.1
14196.9
13966.5
13716.1
13431.1
13097.4
12701.8
12232
11676.7
11025.9
10270.7
9403.75
8419.16
7312.83
6082.46
4727.65
3250.01
1653.1
-57.4555
-1874.13
-3787.53
-5786.57
-7858.73
-9990.29
-12166.7
-14373.2
-16595.1
-18818.8
-21032.3
-23226.9
-25398.3
-27548.8
-29690.4
-31848.7
-34066.1
-36397.7
-38857.1
-41122.7
26060.4
24046.6
22086.9
20494.6
19244.2
18265.1
17495.6
16887.9
16405.2
16017.6
15700.3
15431.6
15191.9
14962.9
14727.8
14470.1
14174.7
13826.9
13412.9
12919.9
12336
11650.8
10855
9940.7
8901.97
7734.47
6435.84
5005.72
3445.87
1760.16
-45.3919
-1962.71
-3981.75
-6090.64
-8275.94
-10522.9
-12816
-15139.1
-17476.3
-19812.6
-22134.8
-24432.6
-26700.4
-28939.1
-31159.4
-33385.4
-35658.6
-38033.1
-40521.4
-42801.7
26759.1
24745.5
22786.1
21194.4
19944.9
18967
18198.9
17593
17112
16726.2
16410.4
16142.5
15902.5
15671.8
15432.9
15169.2
14864.6
14504.2
14073.5
13559.2
12949.1
12232.2
11398.7
10440.7
9351.81
8127.6
6765.63
5265.63
3629.48
1861.35
-32.368
-2043.08
-4160.11
-6370.86
-8661.03
-11015
-13416
-15846.9
-18290.6
-20730.9
-23153.3
-25546.2
-27902.7
-30222.3
-32514.6
-34802.7
-37126.9
-39540.4
-42055.2
-44348.8
27388.7
25375.5
23416.8
21826.3
20578.3
19602.4
18836.6
18233.2
17754.9
17371.6
17057.9
16791.4
16551.9
16320.3
16078.6
15809.7
15497.3
15125.6
14679.9
14146.5
13512.5
12766.6
11898.8
10900.8
9765.93
8489.74
7069.71
5505.6
3799.47
1955.73
-18.8634
-2115.24
-4322.13
-6626.25
-9012.53
-11464.4
-13964.2
-16493.8
-19034.9
-21570.3
-24084
-26563.6
-29000.7
-31394
-33751.7
-36096
-38466.4
-40915.3
-43454
-45759.7
27949.6
25936.9
23979.3
22390.2
21144.2
20170.6
19407.6
18807.1
18331.9
17951.5
17640.4
17376
17137.4
16905.5
16661.7
16388.6
16069.3
15687.8
15228.9
14678.2
14022.9
13250.9
12352.2
11318
10141.7
8818.53
7346
5723.93
3954.5
2042.37
-5.36204
-2179.2
-4467.34
-6855.87
-9328.99
-11869.3
-14458.4
-17077
-19706
-22326.9
-24923
-27480.6
-29990.2
-32449.6
-34866.1
-37260.9
-39672.6
-42153.1
-44713.2
-47029.7
28441.8
26429.6
24473.1
22885.7
21641.8
20670.8
19910.7
19313.4
18841.3
18464.1
18155.8
17893.6
17656.3
17424.4
17179.2
16902.6
16577.6
16187.6
15717
15151.3
14477.1
13682.1
12756
11689.8
10476.6
9111.72
7592.56
5918.98
4093.31
2120.4
7.66266
-2235.01
-4595.35
-7058.86
-9609.11
-12228
-14896.3
-17593.9
-20300.7
-22997.5
-25666.6
-28293.1
-30867
-33384.8
-35853.2
-38292.4
-40740.7
-43249.1
-45828.1
-48154
28864.9
26853.3
24898
23312.2
22070.4
21101.9
20344.7
19750.5
19281.6
18907.5
18601.9
18341.9
18106.1
17874.6
17628.3
17349
17019.1
16621.9
16141.4
15562.8
14872.2
14057.3
13107.4
12013.4
10768.3
9367.24
7807.58
6089.25
4214.7
2188.98
19.7625
-2282.72
-4705.78
-7234.42
-9851.65
-12538.8
-15275.7
-18041.9
-20816.3
-23578.9
-26311.1
-28997.4
-31626.9
-34195.3
-36708.5
-39186.3
-41666.1
-44198.6
-46793.8
-49128
29218.7
27207.6
25253.2
23669
22429.2
21463
20708.5
20117.1
19651.1
19279.8
18976.9
18719
18484.6
18253.6
18006.6
17725.1
17391.3
16988.2
16499.4
15909.9
15205.7
14374.1
13404.2
12286.9
11014.8
9583.22
7989.42
6233.37
4317.62
2247.37