/*--------------------------------*- C++ -*----------------------------------*\
| =========                 |                                                 |
| \\      /  F ield         | OpenFOAM: The Open Source CFD Toolbox           |
|  \\    /   O peration     | Version:  5.x                                   |
|   \\  /    A nd           | Web:      www.OpenFOAM.org                      |
|    \\/     M anipulation  |                                                 |
\*---------------------------------------------------------------------------*/
FoamFile
{
    version     2.0;
    format      ascii;
    class       volScalarField;
    location    "0.9";
    object      gradTz;
}
// * * * * * * * * * * * * * * * * * * * * * * * * * * * * * * * * * * * * * //

dimensions      [0 -1 0 1 0 0 0];

internalField   nonuniform List<scalar> 
25000
(
-6333.96
-6850.56
-6999.91
-7052.42
-7073.99
-7083.73
-7088.24
-7090.15
-7090.66
-7090.37
-7089.6
-7088.54
-7087.29
-7085.93
-7084.5
-7083.04
-7081.57
-7080.1
-7078.66
-7077.25
-7075.89
-7074.6
-7073.38
-7072.25
-7071.23
-7070.32
-7069.55
-7068.93
-7068.46
-7068.17
-7068.06
-7068.15
-7068.43
-7068.93
-7069.62
-7070.52
-7071.6
-7072.84
-7074.2
-7075.6
-7076.92
-7077.98
-7078.44
-7077.69
-7074.5
-7066.22
-7046.25
-6995.43
-6847.85
-6333.05
-6850.57
-7839.85
-8182.82
-8317.57
-8376.38
-8403.77
-8416.61
-8422.05
-8423.45
-8422.51
-8420.16
-8416.95
-8413.2
-8409.12
-8404.84
-8400.46
-8396.04
-8391.64
-8387.32
-8383.1
-8379.03
-8375.15
-8371.5
-8368.12
-8365.06
-8362.35
-8360.03
-8358.16
-8356.77
-8355.89
-8355.56
-8355.82
-8356.68
-8358.15
-8360.25
-8362.93
-8366.18
-8369.9
-8373.98
-8378.19
-8382.2
-8385.45
-8386.96
-8384.98
-8376.1
-8353.12
-8299.08
-8169.4
-7831.71
-6847.84
-6999.93
-8182.86
-8629.34
-8817
-8902.82
-8943.96
-8963.49
-8971.71
-8973.63
-8971.85
-8967.84
-8962.44
-8956.17
-8949.36
-8942.22
-8934.93
-8927.58
-8920.26
-8913.06
-8906.04
-8899.27
-8892.81
-8886.74
-8881.12
-8876.02
-8871.51
-8867.66
-8864.55
-8862.23
-8860.77
-8860.22
-8860.65
-8862.08
-8864.53
-8868.02
-8872.49
-8877.9
-8884.12
-8890.93
-8898
-8904.79
-8910.4
-8913.32
-8910.85
-8897.92
-8864.11
-8786.24
-8607
-8169.32
-6995.39
-7052.47
-8317.7
-8817.13
-9036.1
-9139.63
-9190.33
-9214.6
-9224.64
-9226.59
-9223.73
-9217.91
-9210.25
-9201.43
-9191.88
-9181.9
-9171.7
-9161.43
-9151.21
-9141.15
-9131.35
-9121.9
-9112.89
-9104.41
-9096.56
-9089.44
-9083.14
-9077.77
-9073.41
-9070.17
-9068.13
-9067.37
-9067.96
-9069.96
-9073.39
-9078.25
-9084.52
-9092.09
-9100.81
-9110.38
-9120.38
-9130.06
-9138.28
-9143.09
-9141.09
-9126.04
-9085.57
-8993.14
-8785.94
-8298.79
-7046.13
-7074.09
-8376.67
-8903.2
-9139.93
-9254.25
-9311
-9338.16
-9349.05
-9350.5
-9346.27
-9338.5
-9328.51
-9317.1
-9304.81
-9292
-9278.91
-9265.75
-9252.65
-9239.76
-9227.21
-9215.1
-9203.55
-9192.69
-9182.63
-9173.51
-9165.43
-9158.55
-9152.96
-9148.81
-9146.19
-9145.22
-9145.97
-9148.53
-9152.92
-9159.16
-9167.21
-9176.94
-9188.16
-9200.53
-9213.51
-9226.24
-9237.34
-9244.54
-9243.96
-9228.6
-9184.98
-9084.87
-8863.23
-8352.43
-7065.97
-7083.93
-8404.32
-8944.74
-9191.15
-9311.58
-9371.68
-9400.23
-9411.1
-9411.58
-9405.7
-9395.84
-9383.45
-9369.44
-9354.41
-9338.77
-9322.82
-9306.79
-9290.85
-9275.17
-9259.89
-9245.16
-9231.11
-9217.89
-9205.66
-9194.55
-9184.73
-9176.34
-9169.54
-9164.48
-9161.29
-9160.1
-9161.02
-9164.13
-9169.48
-9177.08
-9186.89
-9198.77
-9212.5
-9227.69
-9243.72
-9259.62
-9273.85
-9283.91
-9285.58
-9271.41
-9227.27
-9124.14
-8896.1
-8374.82
-7074.04
-7088.57
-8417.53
-8964.87
-9216.2
-9339.66
-9401.22
-9429.99
-9440.16
-9439.25
-9431.5
-9419.43
-9404.58
-9387.94
-9370.18
-9351.75
-9332.98
-9314.13
-9295.39
-9276.96
-9259
-9241.68
-9225.17
-9209.64
-9195.25
-9182.19
-9170.65
-9160.79
-9152.79
-9146.84
-9143.08
-9141.68
-9142.75
-9146.4
-9152.69
-9161.63
-9173.18
-9187.21
-9203.44
-9221.45
-9240.58
-9259.75
-9277.32
-9290.61
-9295.2
-9283.33
-9240.54
-9137.42
-8907.68
-8382.85
-7076.94
-7090.65
-8423.48
-8973.9
-9227.33
-9351.87
-9413.58
-9441.72
-9450.66
-9448.06
-9438.26
-9423.88
-9406.54
-9387.29
-9366.82
-9345.64
-9324.09
-9302.46
-9280.97
-9259.84
-9239.26
-9219.41
-9200.48
-9182.68
-9166.18
-9151.21
-9137.97
-9126.66
-9117.49
-9110.66
-9106.34
-9104.72
-9105.95
-9110.12
-9117.34
-9127.6
-9140.87
-9157
-9175.71
-9196.55
-9218.8
-9241.32
-9262.37
-9279.18
-9287.16
-9278.38
-9238.2
-9136.99
-8908.33
-8383.71
-7077.32
-7091.37
-8425.52
-8976.88
-9230.71
-9355.08
-9416.07
-9443.01
-9450.36
-9445.83
-9433.87
-9417.13
-9397.29
-9375.43
-9352.3
-9328.41
-9304.14
-9279.8
-9255.63
-9231.87
-9208.72
-9186.39
-9165.11
-9145.08
-9126.53
-9109.69
-9094.79
-9082.07
-9071.74
-9064.04
-9059.18
-9057.35
-9058.71
-9063.41
-9071.52
-9083.07
-9098.03
-9116.23
-9137.39
-9161.03
-9186.38
-9212.28
-9236.92
-9257.42
-9269.11
-9263.96
-9227.18
-9129.07
-8903.1
-8380.78
-7076.38
-7091.35
-8425.39
-8976.43
-9229.65
-9353.07
-9412.79
-9438.16
-9443.66
-9437.08
-9422.87
-9403.76
-9381.43
-9357.02
-9331.27
-9304.74
-9277.83
-9250.84
-9224.07
-9197.74
-9172.1
-9147.37
-9123.79
-9101.61
-9081.06
-9062.4
-9045.88
-9031.78
-9020.33
-9011.79
-9006.39
-9004.35
-9005.85
-9011.04
-9020.02
-9032.83
-9049.42
-9069.65
-9093.21
-9119.6
-9148.04
-9177.31
-9205.55
-9229.84
-9245.44
-9244.22
-9211.34
-9117
-8894.66
-8375.8
-7074.74
-7090.91
-8424.02
-8974.02
-9226.04
-9348.06
-9406.17
-9429.73
-9433.25
-9424.53
-9408.07
-9386.58
-9361.82
-9334.9
-9306.62
-9277.52
-9248.04
-9218.51
-9189.21
-9160.4
-9132.35
-9105.3
-9079.51
-9055.23
-9032.74
-9012.32
-8994.25
-8978.8
-8966.27
-8956.91
-8950.99
-8948.73
-8950.36
-8956.03
-8965.85
-8979.87
-8998.05
-9020.25
-9046.14
-9075.22
-9106.67
-9139.27
-9171.1
-9199.2
-9218.78
-9221.65
-9192.92
-9102.74
-8884.52
-8369.74
-7072.72
-7090.24
-8421.97
-8970.53
-9221
-9341.36
-9397.67
-9419.31
-9420.79
-9409.92
-9391.21
-9367.41
-9340.27
-9310.93
-9280.19
-9248.63
-9216.68
-9184.69
-9152.96
-9121.78
-9091.41
-9062.12
-9034.2
-9007.91
-8983.56
-8961.45
-8941.87
-8925.13
-8911.54
-8901.4
-8894.97
-8892.51
-8894.25
-8900.37
-8911
-8926.19
-8945.9
-8969.99
-8998.13
-9029.81
-9064.2
-9100.04
-9135.39
-9167.26
-9190.8
-9197.8
-9173.3
-9087.44
-8873.58
-8363.17
-7070.53
-7089.44
-8419.57
-8966.48
-9215.24
-9333.81
-9388.25
-9407.93
-9407.36
-9394.37
-9373.47
-9347.43
-9317.99
-9286.33
-9253.25
-9219.32
-9185.01
-9150.68
-9116.63
-9083.18
-9050.6
-9019.18
-8989.21
-8961.01
-8934.88
-8911.14
-8890.12
-8872.15
-8857.56
-8846.65
-8839.73
-8837.08
-8838.93
-8845.48
-8856.87
-8873.16
-8894.34
-8920.23
-8950.54
-8984.72
-9021.93
-9060.9
-9099.66
-9135.19
-9162.62
-9173.68
-9153.4
-9071.86
-8862.4
-8356.45
-7068.29
-7088.6
-8417.02
-8962.21
-9209.2
-9325.95
-9378.51
-9396.26
-9393.69
-9378.64
-9355.64
-9327.45
-9295.83
-9261.95
-9226.64
-9190.48
-9153.93
-9117.37
-9081.13
-9045.52
-9010.84
-8977.4
-8945.51
-8915.48
-8887.66
-8862.38
-8840
-8820.85
-8805.3
-8793.67
-8786.29
-8783.44
-8785.39
-8792.34
-8804.46
-8821.8
-8844.36
-8871.97
-8904.32
-8940.88
-8980.78
-9022.74
-9064.77
-9103.82
-9134.99
-9149.99
-9133.81
-9056.49
-8851.36
-8349.8
-7066.07
-7087.75
-8414.47
-8957.93
-9203.18
-9318.14
-9368.88
-9384.75
-9380.26
-9363.26
-9338.26
-9308.04
-9274.36
-9238.4
-9200.99
-9162.72
-9124.07
-9085.42
-9047.12
-9009.49
-8972.84
-8937.5
-8903.79
-8872.05
-8842.64
-8815.91
-8792.24
-8771.99
-8755.54
-8743.22
-8735.4
-8732.36
-8734.4
-8741.73
-8754.52
-8772.85
-8796.7
-8825.93
-8860.21
-8899
-8941.44
-8986.22
-9031.34
-9073.73
-9108.46
-9127.22
-9114.95
-9041.69
-8840.71
-8343.38
-7063.92
-7086.92
-8412
-8953.8
-9197.37
-9310.62
-9359.62
-9373.72
-9367.43
-9348.59
-9321.73
-9289.61
-9254
-9216.1
-9176.74
-9136.52
-9095.91
-9055.32
-9015.1
-8975.59
-8937.11
-8900
-8864.6
-8831.26
-8800.37
-8772.3
-8747.43
-8726.15
-8708.85
-8695.9
-8687.65
-8684.45
-8686.56
-8694.24
-8707.65
-8726.89
-8751.95
-8782.68
-8818.75
-8859.63
-8904.43
-8951.85
-8999.86
-9045.37
-9083.43
-9105.71
-9097.13
-9027.69
-8830.64
-8337.31
-7061.89
-7086.15
-8409.67
-8949.92
-9191.9
-9303.56
-9350.94
-9363.4
-9355.44
-9334.9
-9306.31
-9272.44
-9235.07
-9195.39
-9154.23
-9112.21
-9069.81
-9027.44
-8985.46
-8944.21
-8904.05
-8865.31
-8828.35
-8793.56
-8761.3
-8731.98
-8706.01
-8683.78
-8665.7
-8652.16
-8643.54
-8640.17
-8642.35
-8650.34
-8664.33
-8684.41
-8710.57
-8742.67
-8780.39
-8823.18
-8870.17
-8920
-8970.68
-9019.07
-9060.22
-9085.76
-9080.6
-9014.7
-8821.29
-8331.67
-7060.01
-7085.44
-8407.54
-8946.34
-9186.89
-9297.09
-9342.99
-9353.94
-9344.46
-9322.38
-9292.23
-9256.77
-9217.8
-9176.51
-9133.72
-9090.07
-9046.04
-9002.06
-8958.48
-8915.67
-8873.98
-8833.77
-8795.4
-8759.28
-8725.79
-8695.34
-8668.36
-8645.27
-8626.49
-8612.42
-8603.44
-8599.91
-8602.16
-8610.44
-8624.94
-8645.77
-8672.93
-8706.28
-8745.49
-8790.02
-8838.97
-8891.01
-8944.1
-8995.11
-9039.06
-9067.57
-9065.51
-9002.84
-8812.75
-8326.52
-7058.29
-7084.8
-8405.62
-8943.14
-9182.39
-9291.28
-9335.86
-9345.48
-9334.64
-9311.18
-9279.63
-9242.77
-9202.37
-9159.64
-9115.41
-9070.31
-9024.84
-8979.41
-8934.42
-8890.21
-8847.16
-8805.64
-8766.02
-8728.71
-8694.12
-8662.67
-8634.8
-8610.94
-8591.53
-8576.97
-8567.68
-8564.02
-8566.32
-8574.84
-8589.8
-8611.3
-8639.35
-8673.81
-8714.35
-8760.42
-8811.13
-8865.13
-8920.37
-8973.72
-9020.16
-9051.32
-9052.04
-8992.25
-8805.12
-8321.92
-7056.75
-7084.24
-8403.94
-8940.34
-9178.46
-9286.21
-9329.63
-9338.08
-9326.07
-9301.41
-9268.65
-9230.56
-9188.93
-9144.94
-9099.45
-9053.1
-9006.37
-8959.69
-8913.46
-8868.05
-8823.81
-8781.15
-8740.44
-8702.1
-8666.55
-8634.23
-8605.58
-8581.05
-8561.08
-8546.11
-8536.54
-8532.76
-8535.1
-8543.84
-8559.2
-8581.28
-8610.1
-8645.51
-8687.21
-8734.62
-8786.86
-8842.57
-8899.68
-8955.06
-9003.68
-9037.15
-9040.28
-8983
-8798.47
-8317.9
-7055.41
-7083.77
-8402.52
-8937.97
-9175.13
-9281.92
-9324.37
-9331.84
-9318.82
-9293.16
-9259.37
-9220.25
-9177.57
-9132.53
-9085.98
-9038.56
-8990.77
-8943.05
-8895.77
-8849.33
-8804.1
-8760.47
-8718.84
-8679.63
-8643.27
-8610.21
-8580.9
-8555.81
-8535.37
-8520.05
-8510.25
-8506.37
-8508.74
-8517.67
-8533.35
-8555.92
-8585.39
-8621.62
-8664.29
-8712.83
-8766.36
-8823.5
-8882.2
-8939.29
-8989.76
-9025.17
-9030.35
-8975.19
-8792.84
-8314.51
-7054.27
-7083.39
-8401.37
-8936.06
-9172.44
-9278.45
-9320.11
-9326.78
-9312.96
-9286.48
-9251.87
-9211.91
-9168.38
-9122.5
-9075.09
-9026.81
-8978.17
-8929.59
-8881.47
-8834.21
-8788.17
-8743.76
-8701.39
-8661.47
-8624.46
-8590.8
-8560.96
-8535.4
-8514.59
-8498.98
-8488.99
-8485.03
-8487.43
-8496.5
-8512.45
-8535.42
-8565.41
-8602.29
-8645.75
-8695.21
-8749.77
-8808.08
-8868.06
-8926.54
-8978.49
-9015.47
-9022.3
-8968.87
-8788.29
-8311.76
-7053.35
-7083.1
-8400.51
-8934.61
-9170.41
-9275.83
-9316.9
-9322.96
-9308.53
-9281.43
-9246.2
-9205.61
-9161.44
-9114.91
-9066.86
-9017.93
-8968.64
-8919.42
-8870.67
-8822.77
-8776.13
-8731.13
-8688.19
-8647.74
-8610.23
-8576.12
-8545.88
-8519.97
-8498.88
-8483.05
-8472.92
-8468.89
-8471.31
-8480.49
-8496.65
-8519.91
-8550.3
-8587.67
-8631.72
-8681.87
-8737.23
-8796.41
-8857.36
-8916.89
-8969.96
-9008.14
-9016.22
-8964.08
-8784.84
-8309.68
-7052.66
-7082.9
-8399.92
-8933.63
-9169.05
-9274.07
-9314.74
-9320.4
-9305.56
-9278.05
-9242.4
-9201.38
-9156.79
-9109.83
-9061.34
-9011.98
-8962.25
-8912.6
-8863.42
-8815.11
-8768.05
-8722.66
-8679.34
-8638.54
-8600.69
-8566.28
-8535.77
-8509.63
-8488.34
-8472.37
-8462.14
-8458.07
-8460.5
-8469.76
-8486.05
-8509.51
-8540.16
-8577.87
-8622.32
-8672.93
-8728.81
-8788.59
-8850.19
-8910.42
-8964.24
-9003.22
-9012.14
-8960.87
-8782.53
-8308.29
-7052.19
-7082.81
-8399.63
-8933.15
-9168.36
-9273.18
-9313.65
-9319.11
-9304.07
-9276.35
-9240.49
-9199.26
-9154.46
-9107.28
-9058.58
-9009
-8959.05
-8909.18
-8859.78
-8811.26
-8764
-8718.41
-8674.9
-8633.92
-8595.91
-8561.34
-8530.69
-8504.44
-8483.06
-8467.01
-8456.73
-8452.64
-8455.08
-8464.37
-8480.73
-8504.29
-8535.08
-8572.95
-8617.6
-8668.45
-8724.59
-8784.67
-8846.59
-8907.17
-8961.38
-9000.75
-9010.09
-8959.26
-8781.37
-8307.59
-7051.96
-7082.81
-8399.63
-8933.15
-9168.36
-9273.18
-9313.65
-9319.11
-9304.07
-9276.35
-9240.49
-9199.26
-9154.46
-9107.28
-9058.58
-9008.99
-8959.05
-8909.18
-8859.78
-8811.26
-8764
-8718.41
-8674.9
-8633.92
-8595.91
-8561.34
-8530.69
-8504.44
-8483.06
-8467.01
-8456.73
-8452.64
-8455.08
-8464.37
-8480.73
-8504.29
-8535.08
-8572.96
-8617.6
-8668.45
-8724.59
-8784.67
-8846.59
-8907.17
-8961.38
-9000.76
-9010.1
-8959.27
-8781.37
-8307.59
-7051.96
-7082.9
-8399.92
-8933.63
-9169.05
-9274.07
-9314.74
-9320.4
-9305.56
-9278.05
-9242.4
-9201.38
-9156.79
-9109.83
-9061.34
-9011.98
-8962.25
-8912.6
-8863.42
-8815.11
-8768.05
-8722.66
-8679.34
-8638.54
-8600.69
-8566.28
-8535.77
-8509.63
-8488.35
-8472.37
-8462.14
-8458.07
-8460.51
-8469.76
-8486.05
-8509.51
-8540.17
-8577.88
-8622.32
-8672.94
-8728.82
-8788.59
-8850.19
-8910.42
-8964.25
-9003.23
-9012.14
-8960.88
-8782.53
-8308.29
-7052.19
-7083.1
-8400.51
-8934.61
-9170.41
-9275.83
-9316.9
-9322.96
-9308.53
-9281.43
-9246.2
-9205.61
-9161.44
-9114.91
-9066.86
-9017.93
-8968.64
-8919.42
-8870.66
-8822.77
-8776.13
-8731.13
-8688.19
-8647.74
-8610.23
-8576.12
-8545.88
-8519.97
-8498.88
-8483.05
-8472.92
-8468.89
-8471.32
-8480.49
-8496.65
-8519.91
-8550.3
-8587.68
-8631.73
-8681.88
-8737.23
-8796.42
-8857.37
-8916.9
-8969.97
-9008.15
-9016.23
-8964.09
-8784.84
-8309.68
-7052.66
-7083.39
-8401.37
-8936.06
-9172.44
-9278.45
-9320.11
-9326.78
-9312.96
-9286.48
-9251.87
-9211.91
-9168.38
-9122.49
-9075.09
-9026.81
-8978.17
-8929.59
-8881.47
-8834.21
-8788.17
-8743.76
-8701.39
-8661.47
-8624.46
-8590.8
-8560.96
-8535.4
-8514.59
-8498.98
-8489
-8485.03
-8487.43
-8496.5
-8512.46
-8535.42
-8565.41
-8602.3
-8645.75
-8695.21
-8749.78
-8808.09
-8868.07
-8926.55
-8978.49
-9015.48
-9022.31
-8968.87
-8788.29
-8311.76
-7053.35
-7083.77
-8402.52
-8937.97
-9175.13
-9281.92
-9324.37
-9331.84
-9318.82
-9293.15
-9259.37
-9220.25
-9177.57
-9132.53
-9085.98
-9038.56
-8990.77
-8943.04
-8895.77
-8849.33
-8804.1
-8760.47
-8718.84
-8679.63
-8643.27
-8610.21
-8580.9
-8555.81
-8535.38
-8520.05
-8510.25
-8506.37
-8508.75
-8517.67
-8533.36
-8555.93
-8585.4
-8621.63
-8664.3
-8712.84
-8766.37
-8823.51
-8882.21
-8939.3
-8989.77
-9025.18
-9030.35
-8975.2
-8792.84
-8314.51
-7054.27
-7084.24
-8403.94
-8940.34
-9178.46
-9286.21
-9329.63
-9338.08
-9326.07
-9301.41
-9268.65
-9230.56
-9188.92
-9144.94
-9099.45
-9053.09
-9006.37
-8959.69
-8913.46
-8868.04
-8823.81
-8781.15
-8740.44
-8702.1
-8666.55
-8634.23
-8605.58
-8581.05
-8561.08
-8546.11
-8536.55
-8532.77
-8535.11
-8543.85
-8559.21
-8581.29
-8610.11
-8645.52
-8687.22
-8734.63
-8786.87
-8842.58
-8899.7
-8955.07
-9003.7
-9037.16
-9040.29
-8983.01
-8798.47
-8317.9
-7055.41
-7084.8
-8405.62
-8943.14
-9182.39
-9291.28
-9335.86
-9345.47
-9334.64
-9311.18
-9279.63
-9242.77
-9202.37
-9159.64
-9115.41
-9070.31
-9024.84
-8979.41
-8934.42
-8890.21
-8847.16
-8805.64
-8766.02
-8728.71
-8694.12
-8662.67
-8634.8
-8610.94
-8591.53
-8576.98
-8567.69
-8564.03
-8566.33
-8574.85
-8589.81
-8611.31
-8639.36
-8673.82
-8714.36
-8760.43
-8811.14
-8865.14
-8920.39
-8973.73
-9020.18
-9051.33
-9052.05
-8992.26
-8805.13
-8321.92
-7056.75
-7085.44
-8407.54
-8946.34
-9186.89
-9297.09
-9342.99
-9353.94
-9344.46
-9322.38
-9292.23
-9256.77
-9217.8
-9176.5
-9133.72
-9090.07
-9046.04
-9002.05
-8958.48
-8915.67
-8873.98
-8833.77
-8795.4
-8759.28
-8725.79
-8695.34
-8668.37
-8645.28
-8626.49
-8612.42
-8603.44
-8599.92
-8602.17
-8610.44
-8624.95
-8645.78
-8672.94
-8706.29
-8745.51
-8790.03
-8838.99
-8891.03
-8944.12
-8995.13
-9039.08
-9067.59
-9065.53
-9002.85
-8812.76
-8326.52
-7058.29
-7086.15
-8409.67
-8949.92
-9191.9
-9303.56
-9350.94
-9363.4
-9355.44
-9334.9
-9306.31
-9272.44
-9235.07
-9195.39
-9154.23
-9112.21
-9069.81
-9027.43
-8985.45
-8944.21
-8904.05
-8865.31
-8828.35
-8793.56
-8761.3
-8731.99
-8706.01
-8683.78
-8665.71
-8652.17
-8643.54
-8640.17
-8642.36
-8650.35
-8664.34
-8684.42
-8710.58
-8742.68
-8780.41
-8823.2
-8870.18
-8920.02
-8970.69
-9019.09
-9060.23
-9085.78
-9080.61
-9014.71
-8821.29
-8331.67
-7060.01
-7086.92
-8412
-8953.8
-9197.37
-9310.62
-9359.62
-9373.72
-9367.43
-9348.59
-9321.72
-9289.6
-9254
-9216.1
-9176.74
-9136.51
-9095.91
-9055.32
-9015.1
-8975.59
-8937.11
-8899.99
-8864.59
-8831.26
-8800.37
-8772.3
-8747.43
-8726.15
-8708.85
-8695.9
-8687.66
-8684.45
-8686.57
-8694.25
-8707.66
-8726.91
-8751.97
-8782.69
-8818.77
-8859.64
-8904.45
-8951.86
-8999.87
-9045.38
-9083.45
-9105.73
-9097.15
-9027.71
-8830.65
-8337.31
-7061.9
-7087.75
-8414.47
-8957.93
-9203.18
-9318.14
-9368.88
-9384.74
-9380.26
-9363.26
-9338.26
-9308.04
-9274.36
-9238.4
-9200.98
-9162.72
-9124.07
-9085.42
-9047.12
-9009.49
-8972.84
-8937.5
-8903.79
-8872.05
-8842.64
-8815.91
-8792.24
-8772
-8755.54
-8743.23
-8735.4
-8732.37
-8734.41
-8741.74
-8754.53
-8772.86
-8796.72
-8825.94
-8860.23
-8899.02
-8941.46
-8986.24
-9031.36
-9073.75
-9108.47
-9127.23
-9114.96
-9041.7
-8840.72
-8343.39
-7063.92
-7088.6
-8417.02
-8962.21
-9209.2
-9325.95
-9378.51
-9396.25
-9393.69
-9378.64
-9355.64
-9327.45
-9295.83
-9261.95
-9226.64
-9190.47
-9153.93
-9117.37
-9081.13
-9045.52
-9010.84
-8977.4
-8945.5
-8915.48
-8887.66
-8862.38
-8840
-8820.86
-8805.31
-8793.68
-8786.29
-8783.45
-8785.4
-8792.35
-8804.47
-8821.82
-8844.37
-8871.99
-8904.34
-8940.9
-8980.8
-9022.76
-9064.79
-9103.84
-9135.01
-9150.01
-9133.82
-9056.51
-8851.37
-8349.81
-7066.07
-7089.44
-8419.57
-8966.48
-9215.24
-9333.81
-9388.25
-9407.93
-9407.36
-9394.37
-9373.47
-9347.43
-9317.99
-9286.33
-9253.24
-9219.32
-9185.01
-9150.67
-9116.63
-9083.17
-9050.59
-9019.17
-8989.21
-8961.01
-8934.88
-8911.14
-8890.12
-8872.15
-8857.56
-8846.65
-8839.74
-8837.08
-8838.94
-8845.49
-8856.88
-8873.18
-8894.35
-8920.25
-8950.56
-8984.74
-9021.95
-9060.92
-9099.68
-9135.21
-9162.64
-9173.7
-9153.42
-9071.87
-8862.41
-8356.46
-7068.29
-7090.24
-8421.97
-8970.53
-9221
-9341.36
-9397.67
-9419.31
-9420.79
-9409.92
-9391.21
-9367.41
-9340.26
-9310.93
-9280.19
-9248.63
-9216.68
-9184.68
-9152.96
-9121.78
-9091.41
-9062.12
-9034.2
-9007.91
-8983.56
-8961.45
-8941.87
-8925.14
-8911.55
-8901.4
-8894.97
-8892.52
-8894.26
-8900.39
-8911.01
-8926.2
-8945.92
-8970
-8998.15
-9029.83
-9064.22
-9100.06
-9135.41
-9167.28
-9190.82
-9197.82
-9173.32
-9087.45
-8873.59
-8363.18
-7070.53
-7090.91
-8424.02
-8974.02
-9226.04
-9348.06
-9406.17
-9429.73
-9433.25
-9424.53
-9408.06
-9386.58
-9361.81
-9334.9
-9306.61
-9277.52
-9248.04
-9218.5
-9189.2
-9160.4
-9132.35
-9105.3
-9079.5
-9055.23
-9032.74
-9012.32
-8994.25
-8978.81
-8966.27
-8956.91
-8950.99
-8948.74
-8950.37
-8956.04
-8965.86
-8979.88
-8998.07
-9020.26
-9046.16
-9075.24
-9106.69
-9139.29
-9171.12
-9199.22
-9218.8
-9221.67
-9192.93
-9102.75
-8884.53
-8369.75
-7072.72
-7091.35
-8425.39
-8976.43
-9229.65
-9353.07
-9412.79
-9438.16
-9443.66
-9437.08
-9422.87
-9403.75
-9381.43
-9357.01
-9331.27
-9304.74
-9277.82
-9250.84
-9224.06
-9197.74
-9172.09
-9147.37
-9123.79
-9101.61
-9081.06
-9062.4
-9045.89
-9031.78
-9020.33
-9011.8
-9006.4
-9004.36
-9005.86
-9011.05
-9020.03
-9032.84
-9049.44
-9069.67
-9093.23
-9119.62
-9148.06
-9177.33
-9205.57
-9229.86
-9245.46
-9244.24
-9211.36
-9117.02
-8894.67
-8375.81
-7074.74
-7091.37
-8425.52
-8976.88
-9230.71
-9355.08
-9416.07
-9443.01
-9450.36
-9445.83
-9433.87
-9417.13
-9397.28
-9375.43
-9352.3
-9328.41
-9304.14
-9279.8
-9255.63
-9231.86
-9208.71
-9186.39
-9165.11
-9145.08
-9126.53
-9109.69
-9094.79
-9082.07
-9071.75
-9064.05
-9059.19
-9057.36
-9058.72
-9063.42
-9071.53
-9083.09
-9098.04
-9116.25
-9137.41
-9161.05
-9186.4
-9212.3
-9236.94
-9257.44
-9269.13
-9263.98
-9227.2
-9129.08
-8903.11
-8380.78
-7076.38
-7090.65
-8423.48
-8973.9
-9227.33
-9351.87
-9413.58
-9441.72
-9450.66
-9448.06
-9438.26
-9423.88
-9406.54
-9387.29
-9366.82
-9345.63
-9324.09
-9302.45
-9280.97
-9259.84
-9239.26
-9219.41
-9200.48
-9182.67
-9166.18
-9151.21
-9137.97
-9126.66
-9117.49
-9110.66
-9106.35
-9104.73
-9105.95
-9110.13
-9117.35
-9127.61
-9140.88
-9157.02
-9175.73
-9196.57
-9218.81
-9241.34
-9262.39
-9279.2
-9287.17
-9278.4
-9238.21
-9137.01
-8908.34
-8383.71
-7077.32
-7088.57
-8417.53
-8964.87
-9216.2
-9339.67
-9401.22
-9429.99
-9440.16
-9439.25
-9431.5
-9419.43
-9404.58
-9387.94
-9370.18
-9351.75
-9332.98
-9314.12
-9295.39
-9276.95
-9259
-9241.68
-9225.17
-9209.63
-9195.25
-9182.19
-9170.65
-9160.79
-9152.79
-9146.84
-9143.09
-9141.68
-9142.76
-9146.41
-9152.7
-9161.64
-9173.2
-9187.22
-9203.45
-9221.47
-9240.6
-9259.77
-9277.34
-9290.63
-9295.21
-9283.34
-9240.55
-9137.43
-8907.69
-8382.86
-7076.94
-7083.93
-8404.32
-8944.74
-9191.15
-9311.58
-9371.68
-9400.23
-9411.1
-9411.58
-9405.7
-9395.84
-9383.45
-9369.43
-9354.4
-9338.77
-9322.82
-9306.79
-9290.85
-9275.17
-9259.89
-9245.15
-9231.11
-9217.89
-9205.65
-9194.55
-9184.73
-9176.34
-9169.54
-9164.48
-9161.3
-9160.11
-9161.03
-9164.14
-9169.49
-9177.09
-9186.9
-9198.78
-9212.52
-9227.71
-9243.74
-9259.64
-9273.87
-9283.92
-9285.6
-9271.42
-9227.28
-9124.15
-8896.11
-8374.83
-7074.05
-7074.09
-8376.67
-8903.2
-9139.93
-9254.26
-9311
-9338.16
-9349.05
-9350.5
-9346.27
-9338.5
-9328.51
-9317.1
-9304.81
-9292
-9278.91
-9265.74
-9252.65
-9239.76
-9227.2
-9215.09
-9203.55
-9192.69
-9182.63
-9173.5
-9165.43
-9158.54
-9152.96
-9148.81
-9146.19
-9145.22
-9145.98
-9148.53
-9152.93
-9159.17
-9167.21
-9176.95
-9188.17
-9200.55
-9213.53
-9226.25
-9237.35
-9244.55
-9243.98
-9228.62
-9184.99
-9084.88
-8863.24
-8352.44
-7065.97
-7052.47
-8317.7
-8817.13
-9036.1
-9139.63
-9190.33
-9214.6
-9224.64
-9226.59
-9223.73
-9217.91
-9210.25
-9201.43
-9191.88
-9181.9
-9171.7
-9161.43
-9151.21
-9141.15
-9131.35
-9121.9
-9112.89
-9104.41
-9096.56
-9089.44
-9083.14
-9077.76
-9073.41
-9070.17
-9068.13
-9067.37
-9067.97
-9069.96
-9073.39
-9078.26
-9084.52
-9092.1
-9100.81
-9110.39
-9120.38
-9130.07
-9138.29
-9143.1
-9141.1
-9126.05
-9085.58
-8993.14
-8785.95
-8298.79
-7046.13
-6999.93
-8182.86
-8629.34
-8817
-8902.82
-8943.96
-8963.49
-8971.71
-8973.63
-8971.85
-8967.84
-8962.44
-8956.17
-8949.35
-8942.22
-8934.92
-8927.57
-8920.26
-8913.06
-8906.04
-8899.27
-8892.81
-8886.74
-8881.12
-8876.02
-8871.51
-8867.66
-8864.55
-8862.23
-8860.77
-8860.23
-8860.65
-8862.08
-8864.54
-8868.02
-8872.5
-8877.91
-8884.13
-8890.94
-8898.01
-8904.8
-8910.41
-8913.33
-8910.86
-8897.93
-8864.12
-8786.24
-8607.01
-8169.32
-6995.39
-6850.57
-7839.85
-8182.82
-8317.57
-8376.38
-8403.77
-8416.61
-8422.05
-8423.45
-8422.51
-8420.16
-8416.95
-8413.2
-8409.12
-8404.84
-8400.46
-8396.04
-8391.64
-8387.31
-8383.1
-8379.03
-8375.15
-8371.5
-8368.12
-8365.05
-8362.34
-8360.03
-8358.16
-8356.77
-8355.89
-8355.56
-8355.82
-8356.68
-8358.16
-8360.25
-8362.94
-8366.18
-8369.91
-8373.98
-8378.19
-8382.21
-8385.45
-8386.96
-8384.99
-8376.11
-8353.12
-8299.09
-8169.41
-7831.71
-6847.84
-6333.96
-6850.56
-6999.91
-7052.42
-7073.99
-7083.73
-7088.24
-7090.15
-7090.66
-7090.37
-7089.6
-7088.54
-7087.29
-7085.93
-7084.5
-7083.04
-7081.57
-7080.1
-7078.66
-7077.25
-7075.89
-7074.6
-7073.38
-7072.25
-7071.23
-7070.33
-7069.55
-7068.93
-7068.46
-7068.17
-7068.06
-7068.15
-7068.44
-7068.93
-7069.63
-7070.52
-7071.6
-7072.84
-7074.2
-7075.6
-7076.93
-7077.99
-7078.45
-7077.69
-7074.5
-7066.23
-7046.25
-6995.43
-6847.85
-6333.05
-1401.85
-2230.14
-2523.82
-2646.33
-2704.39
-2734.55
-2751.17
-2760.62
-2766.02
-2768.99
-2770.46
-2770.97
-2770.86
-2770.34
-2769.55
-2768.59
-2767.51
-2766.37
-2765.2
-2764.03
-2762.87
-2761.76
-2760.7
-2759.71
-2758.8
-2758
-2757.3
-2756.73
-2756.28
-2755.98
-2755.83
-2755.82
-2755.96
-2756.23
-2756.62
-2757.08
-2757.56
-2757.97
-2758.18
-2757.96
-2756.99
-2754.7
-2750.17
-2741.75
-2726.31
-2697.47
-2640.83
-2519.83
-2227.71
-1401.04
-2230.14
-3939.9
-4651.49
-4976.3
-5137.79
-5223.79
-5271.84
-5299.38
-5315.14
-5323.84
-5328.13
-5329.61
-5329.24
-5327.66
-5325.28
-5322.38
-5319.15
-5315.72
-5312.21
-5308.7
-5305.24
-5301.89
-5298.72
-5295.75
-5293.04
-5290.62
-5288.53
-5286.81
-5285.49
-5284.59
-5284.13
-5284.11
-5284.52
-5285.34
-5286.5
-5287.89
-5289.34
-5290.6
-5291.26
-5290.68
-5287.88
-5281.23
-5268.06
-5243.61
-5199.1
-5117.03
-4959.8
-4639.51
-3932.64
-2227.71
-2523.84
-4651.52
-5610.91
-6075.94
-6316.97
-6448.91
-6523.93
-6567.39
-6592.42
-6606.24
-6613.02
-6615.26
-6614.52
-6611.82
-6607.81
-6602.96
-6597.56
-6591.85
-6586
-6580.15
-6574.39
-6568.83
-6563.54
-6558.6
-6554.09
-6550.06
-6546.59
-6543.73
-6541.53
-6540.03
-6539.27
-6539.24
-6539.94
-6541.31
-6543.25
-6545.59
-6548.06
-6550.23
-6551.45
-6550.7
-6546.4
-6535.99
-6515.28
-6476.96
-6407.82
-6282.43
-6048.49
-5590.99
-4639.43
-2519.79
-2646.37
-4976.41
-6076.05
-6631.25
-6928.62
-7095.42
-7191.92
-7248.45
-7281.2
-7299.29
-7308.05
-7310.77
-7309.5
-7305.58
-7299.89
-7293.05
-7285.48
-7277.49
-7269.31
-7261.12
-7253.08
-7245.3
-7237.92
-7231.02
-7224.72
-7219.1
-7214.25
-7210.25
-7207.18
-7205.09
-7204.03
-7203.99
-7204.98
-7206.91
-7209.66
-7212.99
-7216.53
-7219.71
-7221.66
-7221.02
-7215.71
-7202.4
-7175.67
-7126.33
-7038.05
-6880.38
-6592.91
-6048.22
-4959.53
-2640.72
-2704.49
-5138.05
-6317.3
-6928.88
-7264.38
-7456.28
-7568.92
-7635.55
-7674.33
-7695.69
-7705.87
-7708.72
-7706.71
-7701.45
-7694.02
-7685.16
-7675.4
-7665.13
-7654.63
-7644.13
-7633.81
-7623.85
-7614.38
-7605.54
-7597.46
-7590.26
-7584.05
-7578.93
-7575
-7572.32
-7570.96
-7570.93
-7572.22
-7574.73
-7578.31
-7582.66
-7587.34
-7591.65
-7594.53
-7594.34
-7588.59
-7573.35
-7542.29
-7484.87
-7382.76
-7202.57
-6879.75
-6281.64
-5116.42
-2697.24
-2734.72
-5224.28
-6449.6
-7096.16
-7456.8
-7666.08
-7790.29
-7864.3
-7907.48
-7931.14
-7942.14
-7944.76
-7941.79
-7935.07
-7925.82
-7914.92
-7902.97
-7890.42
-7877.6
-7864.8
-7852.24
-7840.11
-7828.58
-7817.82
-7807.99
-7799.23
-7791.67
-7785.44
-7780.65
-7777.4
-7775.76
-7775.74
-7777.33
-7780.44
-7784.87
-7790.29
-7796.19
-7801.76
-7805.78
-7806.4
-7800.79
-7784.59
-7750.8
-7687.99
-7576.6
-7381.57
-7036.36
-6406.2
-5197.96
-2725.9
-2751.46
-5272.66
-6525.16
-7193.35
-7570.26
-7791.18
-7923.33
-8002.43
-8048.58
-8073.63
-8084.88
-8086.93
-8082.8
-8074.49
-8063.37
-8050.39
-8036.24
-8021.42
-8006.32
-7991.25
-7976.47
-7962.2
-7948.64
-7935.99
-7924.43
-7914.13
-7905.24
-7897.92
-7892.3
-7888.48
-7886.56
-7886.56
-7888.47
-7892.18
-7897.49
-7904.03
-7911.21
-7918.16
-7923.53
-7925.29
-7920.38
-7904.09
-7868.99
-7803.06
-7685.98
-7481.81
-7123.05
-6474.13
-5241.72
-2741.09
-2761.06
-5300.65
-6569.34
-7250.85
-7638.06
-7866.51
-8003.83
-8086.19
-8134.1
-8159.78
-8170.78
-8171.95
-8166.47
-8156.47
-8143.42
-8128.35
-8112.01
-8094.94
-8077.58
-8060.28
-8043.31
-8026.93
-8011.39
-7996.88
-7983.62
-7971.8
-7961.61
-7953.22
-7946.78
-7942.42
-7940.23
-7940.26
-7942.49
-7946.82
-7953.02
-7960.7
-7969.24
-7977.68
-7984.58
-7987.78
-7984.04
-7968.42
-7933.17
-7865.91
-7745.88
-7536.64
-7170.24
-6510.83
-5265.16
-2749.17
-2766.65
-5316.99
-6595.32
-7284.88
-7678.41
-7911.49
-8051.94
-8136.15
-8184.88
-8210.54
-8220.9
-8220.93
-8213.94
-8202.17
-8187.15
-8169.99
-8151.46
-8132.18
-8112.6
-8093.1
-8073.99
-8055.56
-8038.07
-8021.74
-8006.83
-7993.53
-7982.07
-7972.63
-7965.38
-7960.48
-7958.04
-7958.1
-7960.66
-7965.62
-7972.73
-7981.58
-7991.52
-8001.54
-8010.12
-8015.01
-8012.83
-7998.47
-7964
-7896.77
-7775.77
-7564.3
-7194.19
-6529.49
-5277.07
-2753.27
-2769.86
-5326.41
-6610.32
-7304.57
-7701.77
-7937.47
-8079.58
-8164.6
-8213.41
-8238.57
-8247.95
-8246.65
-8238.04
-8224.43
-8207.43
-8188.18
-8167.51
-8146.05
-8124.3
-8102.65
-8081.46
-8061.02
-8041.63
-8023.54
-8007
-7992.27
-7979.57
-7969.11
-7961.08
-7955.66
-7952.97
-7953.07
-7955.97
-7961.55
-7969.57
-7979.61
-7990.99
-8002.65
-8013.02
-8019.78
-8019.46
-8006.83
-7973.81
-7907.62
-7787.07
-7575.31
-7204.07
-6537.37
-5282.17
-2755.04
-2771.63
-5331.58
-6618.54
-7315.31
-7714.4
-7951.35
-8094.08
-8179.14
-8227.51
-8251.8
-8259.97
-8257.18
-8246.87
-8231.4
-8212.42
-8191.11
-8168.33
-8144.75
-8120.88
-8097.16
-8073.94
-8051.56
-8030.33
-8010.52
-7992.43
-7976.3
-7962.39
-7950.95
-7942.17
-7936.25
-7933.32
-7933.47
-7936.69
-7942.89
-7951.83
-7963.06
-7975.88
-7989.22
-8001.46
-8010.22
-8011.97
-8001.38
-7970.32
-7905.85
-7786.72
-7575.98
-7205.29
-6538.68
-5283.15
-2755.4
-2772.49
-5334.09
-6622.48
-7320.37
-7720.2
-7957.46
-8100.09
-8184.67
-8232.21
-8255.38
-8262.17
-8257.8
-8245.75
-8228.42
-8207.49
-8184.16
-8159.34
-8133.7
-8107.79
-8082.05
-8056.88
-8032.63
-8009.63
-7988.17
-7968.57
-7951.1
-7936.04
-7923.64
-7914.14
-7907.73
-7904.58
-7904.77
-7908.32
-7915.14
-7924.97
-7937.37
-7951.64
-7966.66
-7980.8
-7991.64
-7995.58
-7987.27
-7958.47
-7896.2
-7779.13
-7570.25
-7201.2
-6535.98
-5281.63
-2754.91
-2772.78
-5334.92
-6623.73
-7321.83
-7721.63
-7958.59
-8100.64
-8184.39
-8230.85
-8252.73
-8258.05
-8252.06
-8238.27
-8219.1
-8196.26
-8170.98
-8144.18
-8116.56
-8088.69
-8061.03
-8033.99
-8007.95
-7983.25
-7960.21
-7939.17
-7920.41
-7904.25
-7890.94
-7880.75
-7873.88
-7870.51
-7870.75
-7874.62
-7882.03
-7892.73
-7906.29
-7921.97
-7938.66
-7954.7
-7967.63
-7973.84
-7967.91
-7941.56
-7881.77
-7767.15
-7560.66
-7193.9
-6530.87
-5278.61
-2753.91
-2772.72
-5334.72
-6623.29
-7321.04
-7720.32
-7956.59
-8097.76
-8180.45
-8225.68
-8246.18
-8250
-8242.38
-8226.87
-8205.92
-8181.24
-8154.08
-8125.39
-8095.89
-8066.15
-8036.66
-8007.85
-7980.1
-7953.79
-7929.26
-7906.84
-7886.87
-7869.65
-7855.48
-7844.63
-7837.32
-7833.75
-7834.04
-7838.22
-7846.2
-7857.75
-7872.41
-7889.47
-7907.78
-7925.68
-7940.69
-7949.16
-7945.64
-7921.83
-7864.66
-7752.7
-7548.89
-7184.79
-6524.4
-5274.75
-2752.63
-2772.45
-5333.88
-6621.84
-7318.88
-7717.35
-7952.7
-8092.82
-8174.33
-8218.26
-8237.35
-8239.66
-8230.45
-8213.29
-8190.62
-8164.18
-8135.25
-8104.78
-8073.49
-8041.98
-8010.77
-7980.29
-7950.94
-7923.11
-7897.17
-7873.47
-7852.35
-7834.14
-7819.15
-7807.68
-7799.96
-7796.21
-7796.54
-7801.01
-7809.53
-7821.88
-7837.61
-7855.98
-7875.86
-7895.56
-7912.58
-7923.26
-7922.13
-7900.84
-7846.32
-7737.09
-7536.07
-7174.8
-6517.26
-5270.46
-2751.2
-2772.06
-5332.68
-6619.8
-7315.96
-7713.47
-7947.76
-8086.75
-8167.04
-8209.66
-8227.37
-8228.21
-8217.48
-8198.73
-8174.44
-8146.36
-8115.76
-8083.61
-8050.66
-8017.51
-7984.69
-7952.65
-7921.81
-7892.57
-7865.31
-7840.41
-7818.22
-7799.09
-7783.35
-7771.29
-7763.19
-7759.26
-7759.64
-7764.38
-7773.42