/*--------------------------------*- C++ -*----------------------------------*\
| =========                 |                                                 |
| \\      /  F ield         | OpenFOAM: The Open Source CFD Toolbox           |
|  \\    /   O peration     | Version:  5.x                                   |
|   \\  /    A nd           | Web:      www.OpenFOAM.org                      |
|    \\/     M anipulation  |                                                 |
\*---------------------------------------------------------------------------*/
FoamFile
{
    version     2.0;
    format      ascii;
    class       volScalarField;
    location    "0.9";
    object      gradTy;
}
// * * * * * * * * * * * * * * * * * * * * * * * * * * * * * * * * * * * * * //

dimensions      [0 -1 0 1 0 0 0];

internalField   nonuniform List<scalar> 
25000
(
5289.34
10841.2
14445.7
17136.4
19327.3
21212.8
22896.9
24441.1
25884.4
27252.9
28564.5
29831.6
31062.7
32263.2
33436.1
34582.6
35701.7
36791.4
37848
38866.7
39841.4
40765.3
41630.6
42428.7
43150.4
43786.2
44326.1
44760.1
45077.9
45269.7
45325.6
45236.6
44993.8
44589.3
44015.8
43266.8
42336.6
41220.2
39913
38410.6
36708.1
34799
32673.9
30317.4
27703.2
24784.5
21473.6
17593.9
12750.4
5929.14
2565.62
6580.55
9668.74
12152
14244.7
16076.8
17728.6
19251.3
20679.4
22036.5
23339.1
24598.9
25823.7
27018.8
28187
29329.1
30444.3
31530.4
32583.7
33599.3
34571.2
35492.5
36355.4
37151.4
37871.3
38505.6
39044.3
39477.3
39794.6
39986.3
40042.6
39954.4
39713
39310.5
38739.6
37993.9
37067.9
35956.7
34655.9
33161.5
31468.9
29572.5
27464.3
25131.2
22551.6
19688.7
16478.8
12809.4
8485.17
3203.88
1641.29
4623.57
7192.52
9407.07
11350.9
13094.1
14688.6
16172
17571.5
18906.8
20192
21437.3
22649.9
23834.4
24993
26126.6
27234
28312.8
29359.4
30368.8
31335.1
32251.2
33109.4
33901.1
34617.3
35248.5
35784.7
36216
36532.3
36723.7
36780.7
36694.1
36455.5
36056.8
35491.1
34752.1
33834.4
32733.4
31445.3
29966.3
28293.1
26421.2
24344.9
22055
19537.2
16768.3
13712.7
10317.9
6518.89
2276.43
1230.67
3590.5
5756.32
7718.81
9502.77
11140.8
12663
14094.4
15454.7
16759.3
18019.7
19244.2
20439
21607.7
22752.3
23873.1
24968.8
26036.8
27073.4
28073.5
29031.2
29939.4
30790.4
31575.8
32286.4
32912.8
33445.3
33873.8
34188.5
34379.5
34437.4
34353.3
34118.6
33725.6
33167.6
32438.4
31533
30447.1
29177.4
27721
26075.5
24238.3
22206.2
19974.4
17535.7
14879.7
11992.3
8858.31
5471.66
1861.07
1004.75
2971.57
4839.66
6588.9
8221.99
9752.01
11195.1
12566.7
13880.4
15147.5
16376.7
17574.8
18746.5
19894.8
21020.9
22124.9
23205
24258.7
25281.9
26269.5
27215.6
28113.2
28954.6
29731.3
30434.4
31054.4
31581.7
32006.4
32318.8
32509.2
32568.3
32487.2
32257.6
31872.2
31324.2
30607.8
29718.4
28652.2
27406.3
25978.7
24368.2
22574
20595.4
18431.6
16081.5
13543.9
10818.6
7909.89
4833.48
1628.7
860.525
2560.35
4205.84
5779.67
7277.72
8704.02
10066.5
11374.4
12636.6
13861
15054.1
16220.8
17364.9
18488.2
19591.8
20674.9
21735.7
22771.4
23777.8
24749.8
25681.3
26565.5
27394.6
28160.2
28853.6
29465.4
29986.1
30405.9
30715.3
30904.7
30965
30887.6
30664.3
30288
29752.3
29051.6
28181.7
27139.2
25922
24528.9
22959.6
21215.1
19296.8
17207.2
14949.7
12529.1
9953.35
7235.41
4397.6
1476.21
758.567
2263.9
3737.39
5166.35
6545.48
7875.02
9158.58
10401.4
11609.1
12787
13939.8
15071.1
16183.2
17277.6
18354.5
19412.9
20450.8
21464.8
22451
23404
24317.9
25185.7
25999.8
26752
27433.5
28035.1
28547.6
28961.3
29266.7
29454.7
29516.3
29443
29227
28861.4
28340
27657.7
26810.6
25795.8
24611.6
23257.7
21735
20045.5
18192.6
16181.1
14017.3
11710
9270.95
6716.82
4070.74
1364.06
680.963
2035.87
3371.27
4678.36
5952.49
7192.58
8400.05
9577.79
10729.3
11858.1
12967.3
14059.4
15135.9
16197.6
17244
18273.9
19285
20273.9
21236.2
22167
23059.9
23908.3
24704.7
25440.8
26108.1
26697.5
27200
27606.2
27906.8
28092.8
28155.5
28086.8
27879
27525.5
27020.4
26359
25537.6
24554
23406.9
22096.7
20625.1
18995.1
17211.4
15280.5
13210.6
11012.5
8699.95
6290.44
3806.17
1274.21
618.432
1850.96
3071.24
4273.3
5453.57
6610.73
7745.2
8858.54
9952.88
11030.5
12093.4
13143.1
14180.5
15205.8
16218.1
17215.8
18196.4
19156.5
20091.5
20996.5
21865.3
22691.1
23466.7
24184
24834.6
25409.7
25900.4
26297.6
26592.3
26775.6
26839.3
26775.3
26576.5
26236.4
25749.4
25111.2
24318.6
23369.4
22263.2
21000.7
19584.2
18017.6
16306.5
14458.3
12482.4
10390.5
8197.06
5919.4
3578.19
1197.25
565.675
1694.31
2815.19
3924.39
5019.34
6098.93
7163.16
8212.89
9249.41
10274.1
11288.3
12292.8
13287.9
14273.3
15247.8
16209.7
17156.2
18083.7
18987.9
19863.5
20704.7
21504.8
22256.5
22952.2
23583.5
24142
24618.9
25005.5
25293
25472.9
25537.2
25478.2
25289
24963.4
24496.4
23883.6
23122.3
22210.9
21148.9
19937.8
18580.3
17080.8
15445.3
13682
11800.7
9813.47
7734.64
5580.96
3371.58
1127.75
519.436
1556.62
2588.98
3613.99
4629.96
5636.08
6632.27
7619.03
8597.14
9567.45
10530.7
11487.2
12436.9
13379.1
14312.4
15234.8
16143.5
17034.8
17904.4
18747.1
19557.1
20328.1
21052.8
21723.8
22333.2
22872.6
23333.7
23707.9
23987
24162.6
24227.1
24173.2
23994.1
23684.3
23238.6
22653.5
21926.2
21055.4
20041.1
18885.1
17590.2
16161.3
14604.7
12928.7
11143.3
9260.51
7294.24
5260.39
3176.67
1062.33
477.605
1431.81
2383.14
3330.08
4271.61
5207.24
6136.95
7061.06
7980.08
8894.5
9804.65
10710.6
11611.9
12507.6
13396.2
14275.6
15142.7
15994.1
16825.3
17631.5
18406.8
19145.1
19839.6
20483
21067.5
21585.4
22028.4
22388.5
22657.7
22828.1
22892.3
22843.3
22675
22381.8
21959.2
21403.6
20712.8
19885.6
18922.4
17824.9
16596.4
15241.7
13767.4
12181.6
10494.2
8716.98
6863.15
4947.72
2987.07
998.79
438.753
1315.72
2191.13
3064.19
3934.4
4801.55
5665.72
6527.18
7386.25
8243.22
9098.18
9950.93
10800.9
11646.9
12487.4
13320
14142
14949.7
15738.9
16504.7
17241.8
17944
18604.9
19217.4
19774.3
20268
20690.7
21034.8
21292.6
21456.6
21520
21476
21318.8
21043.2
20645
20121
19469.1
18688.5
17779.5
16744.1
15585.7
14309
12920.5
11428.3
9841.83
8172.33
6432.4
4636.03
2798.4
935.618
401.882
1205.42
2008.32
2810.28
3611.17
4411.04
5210.05
6008.47
6806.55
7604.42
8402.04
9199.06
9994.74
10787.9
11576.8
12359.2
13132.3
13892.6
14636
15357.9
16053
16715.6
17339.5
17918
18444.3
18911.2
19311.3
19637.4
19882.3
20038.9
20100.7
20061.5
19915.8
19658.7
19286.4
18795.9
18185.3
17454
16602.5
15632.8
14548.1
13353.4
12054.6
10659.7
9177.64
7618.99
5995.6
4320.47
2607.6
871.769
366.28
1098.83
1831.35
2563.92
3296.65
4029.78
4763.55
5498.26
6234.09
6971.13
7709.23
8447.94
9186.48
9923.61
10657.6
11386.3
12106.9
12816.1
13510
14184.2
14833.8
15453.3
16036.8
16578.2
17071
17508.4
17883.6
18189.7
18420.1
18568.2
18627.8
18593.1
18459.2
18221.5
17876.3
17421.2
16854.2
16175
15384.2
14483.7
13476.7
12367.8
11162.9
9869.33
8495.61
7051.59
5548.26
3997.62
2412.53
806.519
331.435
994.431
1657.82
2321.89
2986.96
3653.37
4321.45
4991.5
5663.7
6338.08
7014.45
7692.33
8370.9
9048.94
9724.79
10396.3
11060.9
11715.4
12356.2
12979.2
13579.6
14152.5
14692.4
15193.6
15649.9
16055.2
16403.1
16687.4
16901.7
17040
17096.7
17066.4
16944.5
16726.9
16410.2
15992.1
15471.1
14846.8
14119.8
13292
12366.4
11347.5
10240.6
9052.71
7791.63
6466.47
5087.32
3665.19
2211.78
739.382
296.975
891.141
1485.95
2081.85
2679.26
3278.61
3880.27
4484.54
5091.6
5701.46
6313.91
6928.46
7544.31
8160.29
8774.82
9385.9
9991.08
10587.4
11171.6
11739.8
12287.7
12810.7
13303.7
13761.6
14178.7
14549.4
14867.8
15128.2
15324.8
15452.3
15505.4
15479.2
15369.6
15172.7
14885.8
14506.5
14033.6
13466.7
12806.6
12054.9
11214.6
10289.6
9285.06
8207.17
7063.19
5861.4
4610.94
3321.76
2004.45
670.058
262.641
788.187
1314.52
1842.15
2371.56
2903.23
3437.54
3974.79
4515.15
5058.63
5605.01
6153.83
6704.33
7255.42
7805.63
8353.13
8895.66
9430.58
9954.82
10464.9
10957
11426.9
11870.1
12281.7
12656.9
12990.5
13277.2
13512
13689.5
13805
13853.7
13831.4
13734.2
13558.9
13302.7
12963.8
12541.1
12034.2
11443.8
10771.6
10020.2
9193.11
8295.03
7331.55
6309.18
5235.34
4118.21
2966.66
1790.12
598.4
228.255
685.043
1142.66
1601.65
2062.52
2525.72
2991.64
3460.58
3932.69
4407.99
4886.26
5367.08
5849.76
6333.3
6816.4
7297.39
7774.28
8244.69
8705.9
9154.82
9588.06
10001.9
10392.3
10755.1
11085.9
11380.1
11633.1
11840.4
11997.5
12099.9
12143.7
12125
12040.4
11887.1
11662.8
11365.8
10995.1
10550.6
10032.7
9443.1
8783.97
8058.55
7270.95
6426.08
5529.7
4588.31
3609.1
2599.83
1568.73
524.387
193.704
581.384
969.872
1359.69
1751.31
2145.18
2541.66
2941.01
3343.39
3748.8
4157.06
4567.8
4980.39
5393.98
5807.41
6219.24
6627.74
7030.86
7426.22
7811.19
8182.81
8537.89
8872.97
9184.44
9468.49
9721.24
9938.73
10117
10252.3
10340.7
10378.9
10363.5
10291.7
10161.1
9969.57
9715.8
9398.94
9018.85
8576.06
8071.84
7508.21
6887.92
6214.5
5492.19
4725.91
3921.23
3084.29
2221.72
1340.56
448.112
158.932
477.04
795.878
1115.91
1437.57
1761.25
2087.26
2415.84
2747.12
3081.11
3417.65
3756.43
4096.93
4438.42
4779.93
5120.27
5457.97
5791.33
6118.38
6436.91
6744.48
7038.42
7315.88
7573.84
7809.16
8018.61
8198.92
8346.82
8459.12
8532.74
8564.76
8552.51
8493.61
8386.04
8228.16
8018.81
7757.33
7443.6
7078.08
6661.83
6196.53
5684.48
5128.58
4532.36
3899.9
3235.78
2545.09
1833.29
1106.17
369.76
123.922
371.971
620.628
870.28
1121.29
1373.97
1628.59
1885.34
2144.33
2405.57
2668.93
2934.17
3200.86
3468.43
3736.11
4002.96
4267.82
4529.35
4785.98
5035.98
5277.43
5508.22
5726.11
5928.73
6113.6
6278.2
6419.93
6536.26
6624.65
6682.69
6708.1
6698.78
6652.87
6568.78
6445.23
6281.31
6076.52
5830.76
5544.41
5218.3
4853.76
4452.59
4017.09
3550.02
3054.58
2534.37
1993.37
1435.85
866.358
289.597
88.694
266.235
444.233
622.976
802.733
983.743
1166.2
1350.25
1535.98
1723.38
1912.38
2102.78
2294.28
2486.48
2678.81
2870.58
3060.96
3248.99
3433.53
3613.33
3787
3953.03
4109.8
4255.61
4388.67
4507.15
4609.2
4692.99
4756.7
4798.58
4817.01
4810.47
4777.61
4717.31
4628.65
4510.98
4363.92
4187.43
3981.77
3747.55
3485.72
3197.58
2884.8
2549.35
2193.54
1819.95
1431.43
1031.07
622.12
207.955
53.2917
159.97
266.93
374.351
482.4
591.222
700.94
811.641
923.375
1036.14
1149.9
1264.52
1379.84
1495.59
1611.45
1726.98
1841.7
1955.01
2066.23
2174.61
2279.3
2379.4
2473.92
2561.84
2642.08
2713.54
2775.1
2825.65
2864.1
2889.41
2900.57
2896.69
2876.95
2840.68
2787.31
2716.46
2627.91
2521.63
2397.78
2256.72
2099.04
1925.51
1737.15
1535.14
1320.86
1095.89
861.942
620.861
374.608
125.219
17.7776
53.3648
89.0475
124.886
160.937
197.25
233.866
270.814
308.111
345.759
383.74
422.016
460.527
499.187
537.884
576.478
614.801
652.656
689.816
726.026
761.007
794.454
826.039
855.418
882.232
906.112
926.686
943.581
956.434
964.893
968.629
967.337
960.749
948.635
930.812
907.15
877.576
842.078
800.712
753.601
700.937
642.986
580.079
512.616
441.061
365.936
287.814
207.312
125.085
41.8118
-17.775
-53.3571
-89.0344
-124.867
-160.912
-197.219
-233.827
-270.768
-308.057
-345.696
-383.668
-421.935
-460.436
-499.087
-537.774
-576.36
-614.674
-652.521
-689.674
-725.879
-760.856
-794.3
-825.884
-855.264
-882.08
-905.965
-926.546
-943.45
-956.313
-964.785
-968.535
-967.259
-960.688
-948.592
-930.788
-907.144
-877.588
-842.107
-800.757
-753.66
-701.008
-643.065
-580.163
-512.701
-441.144
-366.011
-287.877
-207.36
-125.115
-41.8221
-53.2892
-159.962
-266.917
-374.333
-482.376
-591.192
-700.902
-811.596
-923.322
-1036.08
-1149.83
-1264.45
-1379.75
-1495.49
-1611.34
-1726.87
-1841.57
-1954.87
-2066.09
-2174.46
-2279.15
-2379.24
-2473.77
-2561.69
-2641.93
-2713.39
-2774.96
-2825.52
-2863.98
-2889.3
-2900.48
-2896.61
-2876.89
-2840.63
-2787.29
-2716.46
-2627.93
-2521.66
-2397.82
-2256.78
-2099.11
-1925.59
-1737.23
-1535.22
-1320.94
-1095.97
-862.004
-620.908
-374.637
-125.229
-88.6917
-266.228
-444.22
-622.958
-802.71
-983.714
-1166.17
-1350.21
-1535.93
-1723.32
-1912.31
-2102.7
-2294.2
-2486.38
-2678.7
-2870.47
-3060.84
-3248.86
-3433.39
-3613.19
-3786.86
-3952.88
-4109.66
-4255.46
-4388.52
-4507.01
-4609.07
-4692.86
-4756.58
-4798.48
-4816.92
-4810.39
-4777.56
-4717.27
-4628.63
-4510.97
-4363.93
-4187.46
-3981.81
-3747.6
-3485.78
-3197.66
-2884.88
-2549.43
-2193.61
-1820.02
-1431.49
-1031.12
-622.149
-207.965
-123.92
-371.964
-620.617
-870.264
-1121.27
-1373.94
-1628.56
-1885.3
-2144.29
-2405.52
-2668.87
-2934.09
-3200.78
-3468.34
-3736.01
-4002.85
-4267.71
-4529.22
-4785.85
-5035.85
-5277.29
-5508.08
-5725.97
-5928.59
-6113.47
-6278.06
-6419.8
-6536.13
-6624.54
-6682.59
-6708.01
-6698.71
-6652.81
-6568.73
-6445.2
-6281.3
-6076.53
-5830.79
-5544.45
-5218.35
-4853.82
-4452.66
-4017.17
-3550.1
-3054.66
-2534.44
-1993.43
-1435.9
-866.385
-289.607
-158.93
-477.035
-795.868
-1115.9
-1437.55
-1761.22
-2087.23
-2415.8
-2747.08
-3081.06
-3417.6
-3756.37
-4096.86
-4438.34
-4779.84
-5120.17
-5457.86
-5791.22
-6118.26
-6436.79
-6744.35
-7038.29
-7315.74
-7573.7
-7809.03
-8018.48
-8198.8
-8346.71
-8459.02
-8532.64
-8564.67
-8552.44
-8493.56
-8386
-8228.13
-8018.8
-7757.34
-7443.63
-7078.12
-6661.88
-6196.59
-5684.54
-5128.65
-4532.44
-3899.97
-3235.85
-2545.15
-1833.33
-1106.19
-369.769
-193.703
-581.379
-969.864
-1359.67
-1751.29
-2145.16
-2541.63
-2940.98
-3343.35
-3748.76
-4157.01
-4567.74
-4980.33
-5393.9
-5807.32
-6219.15
-6627.64
-7030.75
-7426.11
-7811.08
-8182.69
-8537.76
-8872.85
-9184.32
-9468.37
-9721.12
-9938.62
-10116.9
-10252.2
-10340.6
-10378.8
-10363.5
-10291.7
-10161
-9969.54
-9715.79
-9398.95
-9018.87
-8576.09
-8071.89
-7508.26
-6887.98
-6214.56
-5492.25
-4725.97
-3921.28
-3084.34
-2221.76
-1340.58
-448.12
-228.254
-685.039
-1142.66
-1601.64
-2062.5
-2525.7
-2991.62
-3460.55
-3932.66
-4407.95
-4886.21
-5367.03
-5849.7
-6333.24
-6816.32
-7297.31
-7774.19
-8244.6
-8705.8
-9154.72
-9587.96
-10001.8
-10392.2
-10755
-11085.8
-11380
-11633
-11840.3
-11997.4
-12099.8
-12143.6
-12124.9
-12040.3
-11887.1
-11662.8
-11365.8
-10995.1
-10550.6
-10032.8
-9443.13
-8784.01
-8058.6
-7271
-6426.14
-5529.76
-4588.37
-3609.15
-2599.86
-1568.75
-524.395
-262.641
-788.184
-1314.51
-1842.14
-2371.56
-2903.22
-3437.52
-3974.77
-4515.12
-5058.6
-5604.98
-6153.79
-6704.29
-7255.36
-7805.57
-8353.06
-8895.59
-9430.51
-9954.74
-10464.8
-10956.9
-11426.8
-11870
-12281.6
-12656.8
-12990.4
-13277.2
-13511.9
-13689.4
-13804.9
-13853.7
-13831.4
-13734.2
-13558.9
-13302.7
-12963.8
-12541.1
-12034.2
-11443.9
-10771.7
-10020.2
-9193.15
-8295.08
-7331.6
-6309.23
-5235.39
-4118.25
-2966.69
-1790.13
-598.406
-296.975
-891.14
-1485.95
-2081.85
-2679.26
-3278.6
-3880.26
-4484.53
-5091.58
-5701.44
-6313.88
-6928.43
-7544.27
-8160.24
-8774.77
-9385.84
-9991.02
-10587.4
-11171.5
-11739.7
-12287.6
-12810.6
-13303.7
-13761.5
-14178.6
-14549.3
-14867.7
-15128.1
-15324.8
-15452.2
-15505.3
-15479.2
-15369.5
-15172.7
-14885.8
-14506.5
-14033.6
-13466.7
-12806.6
-12054.9
-11214.6
-10289.6
-9285.1
-8207.2
-7063.23
-5861.43
-4610.97
-3321.79
-2004.46
-670.064
-331.434
-994.431
-1657.82
-2321.89
-2986.96
-3653.37
-4321.45
-4991.49
-5663.69
-6338.07
-7014.43
-7692.31
-8370.87
-9048.91
-9724.75
-10396.3
-11060.9
-11715.4
-12356.2
-12979.1
-13579.5
-14152.4
-14692.3
-15193.5
-15649.8
-16055.1
-16403.1
-16687.3
-16901.6
-17039.9
-17096.6
-17066.4
-16944.5
-16726.9
-16410.2
-15992.1
-15471.1
-14846.8
-14119.8
-13292
-12366.5
-11347.5
-10240.7
-9052.74
-7791.66
-6466.5
-5087.35
-3665.2
-2211.79
-739.386
-366.28
-1098.83
-1831.36
-2563.92
-3296.65
-4029.78
-4763.55
-5498.25
-6234.09
-6971.12
-7709.22
-8447.93
-9186.46
-9923.59
-10657.6
-11386.3
-12106.9
-12816.1
-13510
-14184.2
-14833.7
-15453.2
-16036.8
-16578.2
-17071
-17508.3
-17883.5
-18189.7
-18420
-18568.1
-18627.7
-18593.1
-18459.1
-18221.4
-17876.3
-17421.1
-16854.2
-16175
-15384.2
-14483.7
-13476.7
-12367.8
-11162.9
-9869.35
-8495.63
-7051.61
-5548.27
-3997.63
-2412.54
-806.522
-401.882
-1205.42
-2008.32
-2810.28
-3611.18
-4411.04
-5210.06
-6008.48
-6806.55
-7604.42
-8402.04
-9199.06
-9994.73
-10787.9
-11576.8
-12359.2
-13132.3
-13892.6
-14636
-15357.8
-16053
-16715.6
-17339.5
-17918
-18444.3
-18911.2
-19311.3
-19637.4
-19882.3
-20038.9
-20100.7
-20061.5
-19915.7
-19658.7
-19286.4
-18795.9
-18185.3
-17454
-16602.5
-15632.8
-14548.2
-13353.4
-12054.7
-10659.7
-9177.65
-7619.01
-5995.61
-4320.47
-2607.6
-871.771
-438.754
-1315.72
-2191.13
-3064.2
-3934.41
-4801.56
-5665.73
-6527.19
-7386.26
-8243.22
-9098.19
-9950.94
-10800.9
-11646.9
-12487.4
-13320
-14142
-14949.7
-15738.9
-16504.7
-17241.8
-17944
-18604.9
-19217.4
-19774.3
-20267.9
-20690.7
-21034.8
-21292.6
-21456.6
-21519.9
-21475.9
-21318.7
-21043.2
-20645
-20121
-19469.1
-18688.5
-17779.5
-16744.1
-15585.6
-14309
-12920.5
-11428.3
-9841.83
-8172.33
-6432.4
-4636.03
-2798.4
-935.619
-477.606
-1431.81
-2383.15
-3330.09
-4271.62
-5207.25
-6136.96
-7061.08
-7980.1
-8894.51
-9804.67
-10710.6
-11611.9
-12507.6
-13396.2
-14275.6
-15142.7
-15994.1
-16825.3
-17631.5
-18406.8
-19145.1
-19839.6
-20483
-21067.5
-21585.4
-22028.4
-22388.5
-22657.7
-22828.1
-22892.2
-22843.3
-22675
-22381.8
-21959.2
-21403.6
-20712.8
-19885.6
-18922.4
-17824.9
-16596.4
-15241.7
-13767.3
-12181.6
-10494.2
-8716.97
-6863.15
-4947.71
-2987.07
-998.79
-519.437
-1556.63
-2588.99
-3614
-4629.98
-5636.09
-6632.29
-7619.05
-8597.16
-9567.47
-10530.7
-11487.2
-12436.9
-13379.1
-14312.4
-15234.9
-16143.5
-17034.8
-17904.4
-18747.1
-19557.2
-20328.1
-21052.8
-21723.8
-22333.2
-22872.6
-23333.7
-23707.9
-23987
-24162.6
-24227.1
-24173.2
-23994.1
-23684.2
-23238.6
-22653.5
-21926.1
-21055.3
-20041.1
-18885
-17590.2
-16161.2
-14604.7
-12928.7
-11143.3
-9260.5
-7294.23
-5260.38
-3176.66
-1062.33
-565.676
-1694.31
-2815.2
-3924.4
-5019.36
-6098.94
-7163.18
-8212.91
-9249.43
-10274.1
-11288.3
-12292.8
-13287.9
-14273.3
-15247.9
-16209.8
-17156.3
-18083.8
-18987.9
-19863.6
-20704.7
-21504.8
-22256.6
-22952.2
-23583.5
-24142
-24618.9
-25005.5
-25293
-25473
-25537.2
-25478.2
-25289
-24963.4
-24496.3
-23883.6
-23122.3
-22210.8
-21148.9
-19937.8
-18580.3
-17080.7
-15445.3
-13682
-11800.7
-9813.44
-7734.62
-5580.94
-3371.57
-1127.74
-618.434
-1850.96
-3071.24
-4273.31
-5453.59
-6610.75
-7745.22
-8858.56
-9952.91
-11030.5
-12093.4
-13143.1
-14180.6
-15205.8
-16218.1
-17215.9
-18196.5
-19156.5
-20091.6
-20996.5
-21865.3
-22691.2
-23466.8
-24184
-24834.7
-25409.8
-25900.5
-26297.6
-26592.3
-26775.7
-26839.3
-26775.3
-26576.5
-26236.4
-25749.4
-25111.2
-24318.5
-23369.4
-22263.1
-21000.6
-19584.1
-18017.5
-16306.4
-14458.2
-12482.3
-10390.5
-8197.03
-5919.38
-3578.18
-1197.25
-680.965
-2035.87
-3371.28
-4678.37
-5952.5
-7192.6
-8400.07
-9577.81
-10729.3
-11858.1
-12967.4
-14059.4
-15136
-16197.6
-17244.1
-18274
-19285.1
-20273.9
-21236.3
-22167
-23060
-23908.4
-24704.7
-25440.8
-26108.1
-26697.6
-27200.1
-27606.3
-27906.9
-28092.9
-28155.6
-28086.8
-27879
-27525.5
-27020.4
-26359
-25537.6
-24554
-23406.9
-22096.7
-20625
-18995
-17211.4
-15280.5
-13210.6
-11012.5
-8699.91
-6290.41
-3806.15
-1274.21
-758.568
-2263.91
-3737.4
-5166.36
-6545.49
-7875.04
-9158.6
-10401.4
-11609.1
-12787.1
-13939.9
-15071.1
-16183.3
-17277.7
-18354.6
-19413
-20450.8
-21464.9
-22451.1
-23404.1
-24318
-25185.8
-25999.9
-26752.1
-27433.6
-28035.2
-28547.7
-28961.3
-29266.8
-29454.8
-29516.3
-29443
-29227.1
-28861.4
-28340
-27657.7
-26810.6
-25795.7
-24611.6
-23257.7
-21735
-20045.5
-18192.6
-16181
-14017.2
-11709.9
-9270.91
-6716.78
-4070.72
-1364.05
-860.526
-2560.36
-4205.84
-5779.68
-7277.73
-8704.03
-10066.5
-11374.4
-12636.7
-13861.1
-15054.1
-16220.9
-17364.9
-18488.3
-19591.8
-20674.9
-21735.8
-22771.5
-23777.9
-24749.9
-25681.4
-26565.6
-27394.7
-28160.4
-28853.7
-29465.5
-29986.2
-30406
-30715.4
-30904.8
-30965.1
-30887.6
-30664.4
-30288.1
-29752.3
-29051.6
-28181.7
-27139.2
-25922
-24528.8
-22959.6
-21215
-19296.7
-17207.2
-14949.6
-12529.1
-9953.3
-7235.37
-4397.58
-1476.2
-1004.75
-2971.58
-4839.66
-6588.91
-8222
-9752.02
-11195.1
-12566.7
-13880.4
-15147.5
-16376.8
-17574.9
-18746.6
-19894.9
-21021
-22125
-23205.1
-24258.8
-25282
-26269.7
-27215.8
-28113.4
-28954.8
-29731.4
-30434.5
-31054.5
-31581.8
-32006.6
-32318.9
-32509.3
-32568.4
-32487.2
-32257.7
-31872.2
-31324.2
-30607.9
-29718.4
-28652.2
-27406.2
-25978.7
-24368.2
-22574
-20595.3
-18431.5
-16081.4
-13543.8
-10818.5
-7909.84
-4833.45
-1628.69
-1230.68
-3590.5
-5756.32
-7718.82
-9502.78
-11140.8
-12663
-14094.4
-15454.8
-16759.4
-18019.7
-19244.3
-20439.1
-21607.8
-22752.4
-23873.2
-24968.9
-26037
-27073.5
-28073.7
-29031.3
-29939.5
-30790.6
-31575.9
-32286.6
-32913
-33445.5
-33874
-34188.6
-34379.7
-34437.6
-34353.4
-34118.7
-33725.7
-33167.6
-32438.4
-31533
-30447.1
-29177.4
-27721
-26075.4
-24238.2
-22206.1
-19974.3
-17535.6
-14879.6
-11992.2
-8858.26
-5471.63
-1861.06
-1641.29
-4623.57
-7192.53
-9407.07
-11350.9
-13094.1
-14688.6
-16172.1
-17571.6
-18906.8
-20192
-21437.4
-22650
-23834.4
-24993.1
-26126.7
-27234.1
-28313
-29359.6
-30369
-31335.2
-32251.4
-33109.5
-33901.3
-34617.5
-35248.7
-35784.9
-36216.2
-36532.5
-36723.9
-36780.9
-36694.3
-36455.6
-36056.9
-35491.1
-34752.1
-33834.4
-32733.4
-31445.2
-29966.3
-28293
-26421.2
-24344.8
-22054.9
-19537.1
-16768.3
-13712.6
-10317.8
-6518.86
-2276.42
-2565.62
-6580.55
-9668.74
-12152
-14244.7
-16076.9
-17728.6
-19251.4
-20679.5
-22036.6
-23339.2
-24598.9
-25823.8
-27018.9
-28187.1
-29329.2
-30444.5
-31530.6
-32583.9
-33599.4
-34571.4
-35492.7
-36355.6
-37151.6
-37871.5
-38505.8
-39044.5
-39477.5
-39794.8
-39986.5
-40042.8
-39954.6
-39713.2
-39310.6
-38739.7
-37994
-37068
-35956.7
-34655.9
-33161.4
-31468.8
-29572.5
-27464.2
-25131.1
-22551.5
-19688.6
-16478.7
-12809.4
-8485.14
-3203.87
-5289.34
-10841.2
-14445.7
-17136.4
-19327.4
-21212.8
-22896.9
-24441.1
-25884.4
-27252.9
-28564.5
-29831.7
-31062.8
-32263.3
-33436.2
-34582.7
-35701.9
-36791.6
-37848.2
-38866.9
-39841.6
-40765.5
-41630.8
-42428.9
-43150.6
-43786.4
-44326.3
-44760.3
-45078.1
-45269.8
-45325.8
-45236.7
-44994
-44589.5
-44015.9
-43266.9
-42336.7
-41220.2
-39913
-38410.6
-36708
-34799
-32673.9
-30317.3
-27703.1
-24784.4
-21473.6
-17593.9
-12750.4
-5929.13
2573.24
6602.55
9703.94
12199.4
14303.4
16146.1
17807.8
19339.9
20777
22142.6
23453.4
24721
25953.4
27155.8
28330.9
29479.7
30601.5
31693.8
32753
33774.2
34751.4
35677.8
36545.3
37345.5
38069.2
38706.7
39248
39683.2
40001.9
40194.3
40250.5
40161.4
39918.2
39513
38938.4
38188
37256.3
36138.3
34829.5
33326
31623.3
29715.6
27594.9
25248.2
22653.9
19775.2
16548.3
12860.7
8516.91
3214.76
1891.96
5228.54
8010.35
10351
12373.2
14168.5
15800.2
17312.1
18734.5
20089
21391
22651.3
23877.5
25074.4
26244.8
27389.3
28507.1
29595.8
30651.7
31669.8
32644.3
33568
34433.1
35231.2
35953.1
36589
37129.2
37563.4
37881.7
38073.9
38130.5
38042.2
37800.4
37397.1
36825.2
36078.2
35150.6
34037.7
32735.4
31239.7
29546.7
27651.5
25547.2
23222.7
20660.6
17831.8
14689.4
11159.5
7138.28
2531.94
1434.47
4131.87
6536.67
8660.36
10553.7
12268.3
13846.6
15321
16715.8
18048.9
19333.7
20579.8
21793.9
22980.2
24141.1
25277
26387
27468.5
28517.7
29529.6
30498.3
31416.8
32277.3
33071.1
33789.3
34422.1
34959.8
35392.3
35709.4
35901.5
35958.7
35872.1
35633
35233.5
34666.8
33926.4
33007.1
31904.5
30614.7
29134.4
27460.4
25589.2
23515.8
21232.9
18728.7
15985.7
12977.6
9670.41
6032.28
2071.32
1152.82
3385.93
5465.21
7372.76
9122.87
10740.3
12250.4
13674.8
15031.6
16334.7
17595
18820.5
20016.8
21187.5
22334.4
23457.6
24555.8
25626.4
26665.6
27668.3
28628.4
29539
30392.2
31179.7
31892.2
32520.3
33054.2
33483.9
33799.5
33991.1
34049.3
33965
33729.9
33336.2
32777.1
32046.5
31139.5
30051.9
28780.4
27322.5
25675.9
23838.7
21808.4
19581.4
17152.5
14514.3
11657.7
8575.54
5272.15
1784.92
970.281
2876.05
4697.55
6414.11
8025.41
9541.45
10975.9
12342.6
13653.8
14920.1
16149.7
17349
18522.4
19672.7
20801.1
21907.5
22990.2
24046.4
25072.1
26062.3
27010.9
27910.8
28754.4
29533.1
30238.1
30859.8
31388.5
31814.4
32127.7
32318.6
32378
32296.8
32066.8
31680.6
31131.5
30413.8
29522.7
28454.6
27206.8
25777.5
24165.7
22370.8
20392.9
18231.9
15888
13361.6
10655.2
7776.04
4742.96
1595.91
843.476
2511.82
4131.57
5686.08
7170.51
8587.72
9944.54
11249.2
12510
13734.3
14928.1
16096.2
17242
18367.5
19473.3
20558.9
21622.2
22660.4
23669.4
24643.8
25577.8
26464.3
27295.6
28063.3
28758.5
29372
29894
30315
30625.2
30815.2
30875.8
30798.3
30574.6
30197.5
29660.7
28958.6
28087
27042.7
25823.4
24428.3
22857.3
21111.6
19192.9
17104.4
14850.2
12436
9870.99
7169.29
4354.01
1460.82
749.578
2237.97
3697.03
5114.69
6485.58
7809.54
9089.65
10330.7
11537.8
12716.2
13870
15002.8
16116.9
17213.5
18292.7
19353.5
20393.8
21410.4
22399
23354.5
24270.8
25140.9
25957.1
26711.3
27394.6
27997.9
28511.7
28926.6
29232.9
29421.4
29483.3
29409.9
29193.5
28827.1
28304.6
27620.9
26772.1
25755.3
24569
23213
21688.2
19997
18142.9
16131
13968.3
11664
9230.33
6684.47
4049.66
1356.7
676.114
2021.78
3349.16
4649.83
5919.25
7156.19
8361.86
9538.9
10690.6
11820.2
12930.8
14024.6
15103.1
16166.9
17215.7
18248
19261.5
20252.9
21217.7
22150.8
23046.1
23896.8
24695.2
25433.3
26102.3
26693.4
27197.3
27604.6
27906
28092.6
28155.5
28086.7
27878.5
27524.2
27018
26355.2
25532.1
24546.5
23397.2
22084.7
20610.8
18978.6
17193.1
15260.8
13190.4
10992.9
8682.24
6276.18
3796.84
1270.96
615.871
1843.51
3059.51
4258.18
5436.03
6591.72
7725.56
8839
9934.05
11012.8
12077.3
13128.8
14168.3
15195.8
16210.4
17210.5
18193.5
19156
20093.5
21000.7
21871.8
22699.8
23477.5
24196.7
24849
25425.7
25917.7
26316
26611.5
26795.4
26859.3
26795.2
26596
26255.1
25767
25127.5
24333.1
23381.9
22273.4
21008.5
19589.5
18020.4
16307
14456.7
12479.2
10386.3
8192.49
5915.33
3575.39
1196.25
564.442
1690.73
2809.62
3917.3
5011.33
6090.56
7154.98
8205.39
9243
10269.1
11285
12291.4
13288.6
14276.2
15253.1
16217.3
17166.1
18096
19002.5
19880.4
20723.8
21526
22279.7
22977.2
23610.2
24170.2
24648.4
25036.1
25324.4
25504.8
25569.3
25510.3
25320.6
24994.3
24526.2
23912.1
23149.1
22235.6
21171.4
19957.8
18597.7
17095.4
15457.3
13691.4
11807.7
9818.34
7737.8
5582.82
3372.51
1128.03
518.997
1555.38
2587.12
3611.81
4627.81
5634.31
6631.25
7619.08
8598.54
9570.45
10535.5
11493.9
12445.7
13390.1
14325.7
15250.4
16161.3
17054.9
17926.7
18771.6
19583.8
20356.8
21083.4
21756.2
22367.2
22908.1
23370.4
23745.7
24025.5
24201.7
24266.4
24212.3
24032.9
23722.3
23275.7
22689.1
21960.1
21087.4
20070.9
18912.3
17614.8
16183
14623.5
12944.6
11156.4
9270.81
7301.96
5265.71
3179.77
1063.35
477.645
1431.97
2383.54
3330.9
4273.06
5209.55
6140.37
7065.8
7986.34
8902.45
9814.44
10722.3
11625.7
12523.5
13414.3
14295.8
15165.2
16018.7
16852.1
17660.4
18437.8
19178.1
19874.4
20519.5
21105.6
21624.8
22069.1
22430.2
22700.1
22870.9
22935.3
22886.3
22717.6
22423.7
22000.1
21443.2
20750.8
19921.7
18956.2
17856.2
16625
15267.5
13790.1
12201.2
10510.8
8730.38
6873.47
4955.01
2991.42
1000.23
439.08
1316.72
2192.89
3066.82
3938.02
4806.33
5671.81
6534.73
7395.4
8254.09
9110.89
9965.56
10817.5
11665.6
12508.1
13342.9
14166.9
14976.7
15768
16535.8
17274.9
17979
18641.6
19255.8
19814.1
20309.1
20733
21078
21336.5
21501.1
21564.6
21520.5
21362.9
21086.7
20687.6
20162.3
19508.8
18726.3
17815.2
16777.4
15616.3
14336.7
12945.2
11449.8
9860.15
8187.35
6444.08
4644.36
2803.39
937.281
402.372
1206.91
2010.85
2813.92
3616.03
4417.2
5217.63
6017.57
6817.27
7616.85
8416.27
9215.14
10012.7
10807.8
11598.7
12383.2
13158.2
13920.5
14665.8
15389.6
16086.6
16750.9
17376.5
17956.6
18484.3
18952.4
19353.6
19680.6
19926.2
20083.2
20145.2
20105.9
19959.9
19702.2
19329
18837.2
18225.2
17492
16638.5
15666.4
14579.2
13381.7
12080
10681.9
9196.61
7634.62
6007.81
4329.21
2612.86
873.523
366.854
1100.56
1834.27
2568.07
3302.11
4036.6
4771.82
5508.04
6245.47
6984.16
7723.98
8464.46
9204.81
9943.78
10679.7
11410.2
12132.7
12843.8
13539.5
14215.5
14866.8
15487.9
16073
16615.9
17110
17548.5
17924.7
18231.7
18462.7
18611.2
18670.9
18636.3
18502
18263.7
17917.7
17461.4
16893
16212.1
15419.4
14516.7
13507.2
12395.7
11187.9
9891.32
8514.44
7067.14
5560.44
4006.36
2417.8
808.277
332.038
996.248
1660.87
2326.21
2992.59
3660.36
4329.86
5001.38
5675.1
6351.05
7029.04
7708.57
8388.83
9068.59
9746.17
10419.4
11085.8
11742
12384.5
13009.1
13611.1
14185.5
14726.9
15229.4
15687
16093.4
16442.2
16727.2
16942.1
17080.8
17137.7
17107.4
16985.1
16767
16449.5
16030.4
15508.1
14882.1
14153.3
13323.4
12395.6
11374.2
10264.6
9073.83
7809.74
6481.45
5099.08
3673.63
2216.87
741.083
297.572
892.935
1488.96
2086.09
2684.77
3285.42
3888.42
4494.07
5102.56
5713.88
6327.82
6943.9
7561.31
8178.86
8794.98
9407.65
10014.4
10612.4
11198.1
11767.7
12317.1
12841.5
13335.9
13795
14213.2
14584.8
14904.1
15165.2
15362.4
15490.2
15543.4
15517.2
15407.3
15210
14922.3
14542.1
14067.9
13499.6
12837.8
12084.2
11241.8
10314.5
9307.5
8226.95
7080.18
5875.46
4621.98
3329.7
2009.24
671.658
263.205
789.882
1317.35
1846.14
2376.74
2909.62
3445.16
3983.68
4525.34
5070.15
5617.89
6168.1
6720
7272.51
7824.15
8373.07
8917.04
9453.37
9979
10490.4
10983.8
11455
11899.3
12312.1
12688.3
13022.8
13310.3
13545.7
13723.7
13839.5
13888.4
13866
13768.6
13592.8
13336
12996.2
12572.4
12064.2
11472.3
10798.4
10045
9215.88
8315.54
7349.64
6324.73
5248.22
4128.33
2973.94
1794.5
599.866
228.768
686.587
1145.24
1605.28
2067.22
2531.5
2998.54
3468.61
3941.88
4418.36
4897.83
5379.88
5863.8
6348.6
6832.95
7315.21
7793.35
8265.01
8727.44
9177.57
9611.96
10026.9
10418.4
10782.1
11113.8
11408.8
11662.5
11870.4
12027.8
12130.6
12174.4
12155.7
12070.9
11917.3
11692.4
11394.6
11023
10577.2
10058.1
9466.92
8806.1
8078.83
7289.22
6442.21
5543.56
4599.8
3618.13
2606.32
1572.64
525.697
194.155
582.738
972.135
1362.87
1755.42
2150.24
2547.68
2948.02
3351.4
3757.83
4167.13
4578.92
4992.58
5407.25
5821.76
6234.68
6644.26
7048.44
7444.86
7830.85
8203.47
8559.49
8895.47
9207.78
9492.59
9746.02
9964.09
10142.9
10278.5
10367.2
10405.5
10390.1
10318.1
10187.1
9995.08
9740.65
9422.98
9041.9
8597.96
8092.44
7527.34
6905.46
6230.31
5506.14
4737.9
3931.17
3092.11
2227.35
1343.95
449.247
159.31
478.178
797.779
1118.58
1441.02
1765.49
2092.3
2421.7
2753.82
3088.66
3426.07
3765.72
4107.11
4449.49
4791.9
5133.13
5471.73
5805.97
6133.89
6453.27
6761.66
7056.39
7334.59
7593.24
7829.19
8039.21
8220
8368.31
8480.91
8554.73
8586.84
8574.56
8515.52
8407.66
8249.37
8039.48
7777.32
7462.77
7096.3
6678.97
6212.45
5699.07
5141.74
4543.98
3909.89
3244.07
2551.61
1837.98
1109
370.706
124.222
372.873
622.135
872.398
1124.02
1377.33
1632.59
1889.98
2149.63
2411.54
2675.58
2941.5