/*--------------------------------*- C++ -*----------------------------------*\
| =========                 |                                                 |
| \\      /  F ield         | OpenFOAM: The Open Source CFD Toolbox           |
|  \\    /   O peration     | Version:  5.x                                   |
|   \\  /    A nd           | Web:      www.OpenFOAM.org                      |
|    \\/     M anipulation  |                                                 |
\*---------------------------------------------------------------------------*/
FoamFile
{
    version     2.0;
    format      ascii;
    class       volScalarField;
    location    "0.9";
    object      T;
}
// * * * * * * * * * * * * * * * * * * * * * * * * * * * * * * * * * * * * * //

dimensions      [0 0 0 1 0 0 0];

internalField   nonuniform List<scalar> 
25000
(
300.736
301.38
301.763
302.04
302.262
302.452
302.621
302.776
302.921
303.058
303.19
303.316
303.44
303.56
303.677
303.792
303.904
304.013
304.119
304.221
304.318
304.411
304.497
304.577
304.65
304.713
304.767
304.811
304.842
304.862
304.867
304.858
304.834
304.793
304.736
304.661
304.568
304.456
304.325
304.175
304.004
303.813
303.6
303.364
303.101
302.808
302.474
302.078
301.571
300.8
301.38
302.956
304.015
304.815
305.469
306.033
306.537
307
307.433
307.843
308.236
308.616
308.985
309.345
309.697
310.041
310.377
310.703
311.02
311.326
311.618
311.895
312.155
312.394
312.611
312.801
312.963
313.093
313.189
313.246
313.263
313.236
313.164
313.042
312.87
312.646
312.367
312.032
311.64
311.189
310.679
310.107
309.469
308.763
307.98
307.106
306.116
304.959
303.529
301.572
301.762
304.012
305.631
306.901
307.96
308.883
309.713
310.477
311.193
311.873
312.525
313.156
313.769
314.367
314.952
315.524
316.082
316.625
317.152
317.661
318.147
318.608
319.04
319.438
319.798
320.115
320.385
320.601
320.76
320.856
320.884
320.84
320.719
320.518
320.232
319.859
319.395
318.839
318.188
317.439
316.592
315.642
314.586
313.416
312.122
310.684
309.065
307.202
304.965
302.081
302.036
304.806
306.892
308.578
310.009
311.271
312.413
313.469
314.461
315.406
316.313
317.191
318.045
318.879
319.694
320.492
321.27
322.029
322.764
323.473
324.152
324.796
325.399
325.955
326.458
326.901
327.277
327.58
327.802
327.936
327.975
327.914
327.746
327.465
327.067
326.547
325.901
325.125
324.218
323.176
321.996
320.675
319.207
317.585
315.795
313.813
311.601
309.086
306.137
302.482
302.254
305.448
307.933
309.988
311.761
313.339
314.778
316.115
317.375
318.577
319.733
320.854
321.945
323.011
324.053
325.073
326.069
327.04
327.982
328.89
329.759
330.584
331.356
332.068
332.713
333.28
333.763
334.151
334.436
334.608
334.659
334.581
334.367
334.008
333.499
332.834
332.008
331.018
329.859
328.528
327.022
325.337
323.468
321.406
319.136
316.635
313.862
310.746
307.154
302.826
302.438
305.994
308.828
311.213
313.298
315.172
316.891
318.496
320.014
321.465
322.864
324.221
325.544
326.837
328.103
329.342
330.552
331.732
332.877
333.981
335.038
336.041
336.98
337.847
338.631
339.323
339.91
340.382
340.729
340.939
341.003
340.909
340.649
340.214
339.596
338.79
337.788
336.586
335.181
333.567
331.743
329.705
327.446
324.958
322.227
319.231
315.928
312.25
308.07
303.134
302.599
306.473
309.616
312.3
314.672
316.821
318.805
320.664
322.429
324.121
325.755
327.342
328.891
330.406
331.89
333.343
334.764
336.149
337.493
338.79
340.032
341.21
342.314
343.332
344.254
345.067
345.757
346.313
346.722
346.97
347.045
346.936
346.632
346.123
345.4
344.455
343.281
341.873
340.227
338.339
336.206
333.823
331.187
328.289
325.116
321.647
317.844
313.64
308.913
303.416
302.742
306.9
310.323
313.28
315.916
318.322
320.554
322.656
324.657
326.579
328.44
330.249
332.017
333.748
335.445
337.107
338.732
340.318
341.857
343.343
344.766
346.115
347.38
348.548
349.605
350.537
351.329
351.967
352.436
352.721
352.809
352.686
352.34
351.758
350.932
349.853
348.512
346.905
345.025
342.871
340.437
337.723
334.723
331.43
327.834
323.915
319.636
314.937
309.698
303.679
302.871
307.287
310.964
314.171
317.053
319.698
322.165
324.495
326.721
328.864
330.942
332.966
334.945
336.885
338.787
340.652
342.478
344.258
345.987
347.657
349.256
350.773
352.195
353.509
354.697
355.746
356.637
357.356
357.884
358.207
358.307
358.171
357.784
357.133
356.208
354.998
353.496
351.695
349.59
347.178
344.456
341.421
338.072
334.401
330.401
326.052
321.324
316.156
310.435
303.926
302.989
307.64
311.551
314.989
318.098
320.966
323.652
326.2
328.638
330.992
333.277
335.507
337.689
339.83
341.932
343.993
346.011
347.981
349.894
351.741
353.512
355.192
356.767
358.222
359.539
360.7
361.689
362.486
363.073
363.432
363.545
363.396
362.97
362.253
361.232
359.897
358.24
356.252
353.931
351.271
348.271
344.93
341.245
337.214
332.827
328.071
322.915
317.305
311.13
304.158
303.097
307.965
312.09
315.741
319.061
322.137
325.03
327.781
330.421
332.974
335.457
337.883
340.26
342.594
344.886
347.136
349.34
351.492
353.583
355.602
357.538
359.375
361.098
362.689
364.131
365.402
366.485
367.358
368.002
368.396
368.522
368.362
367.899
367.119
366.006
364.552
362.745
360.579
358.05
355.153
351.888
348.254
344.25
339.874
335.121
329.977
324.417
318.388
311.784
304.377
303.197
308.263
312.587
316.435
319.95
323.22
326.305
329.247
332.077
334.819
337.489
340.102
342.664
345.182
347.657
350.087
352.468
354.794
357.056
359.24
361.335
363.323
365.188
366.911
368.472
369.85
371.023
371.969
372.668
373.097
373.236
373.066
372.568
371.727
370.528
368.959
367.01
364.674
361.947
358.825
355.307
351.394
347.087
342.385
337.284
331.775
325.833
319.409
312.4
304.583
303.288
308.537
313.044
317.073
320.769
324.22
327.485
330.605
333.613
336.532
339.379
342.167
344.905
347.597
350.245
352.847
355.397
357.889
360.313
362.655
364.9
367.033
369.034
370.883
372.558
374.037
375.296
376.313
377.065
377.527
377.679
377.5
376.969
376.071
374.79
373.113
371.03
368.534
365.619
362.283
358.527
354.35
349.757
344.747
339.318
333.464
327.163
320.367
312.979
304.777
303.372
308.789
313.463
317.66
321.523
325.141
328.572
331.858
335.032
338.116
341.129
344.082
346.985
349.841
352.652
355.415
358.125
360.774
363.351
365.842
368.231
370.501
372.63
374.598
376.382
377.957
379.299
380.383
381.185
381.679
381.844
381.656
381.095
380.144
378.786
377.007
374.798
372.15
369.059
365.523
361.541
357.118
352.255
346.956
341.221
335.044
328.406
321.263
313.52
304.957
303.449
309.02
313.847
318.197
322.214
325.985
329.569
333.008
336.335
339.573
342.74
345.847
348.903
351.912
354.876
357.79
360.65
363.446
366.167
368.798
371.322
373.719
375.97
378.05
379.935
381.601
383.021
384.168
385.018
385.543
385.719
385.524
384.936
383.935
382.505
380.631
378.304
375.515
372.26
368.536
364.346
359.692
354.579
349.01
342.99
336.512
329.561
322.096
314.022
305.125
303.519
309.229
314.196
318.686
322.842
326.753
330.477
334.057
337.525
340.904
344.212
347.461
350.659
353.81
356.915
359.969
362.968
365.901
368.755
371.516
374.165
376.682
379.045
381.229
383.21
384.96
386.452
387.659
388.553
389.107
389.295
389.093
388.479
387.433
385.936
383.976
381.539
378.62
375.212
371.316
366.932
362.065
356.72
350.904
344.619
337.865
330.625
322.862
314.485
305.28
303.582
309.417
314.51
319.126
323.409
327.446
331.297
335.005
338.601
342.109
345.545
348.924
352.251
355.532
358.766
361.949
365.074
368.132
371.11
373.989
376.753
379.38
381.847
384.127
386.195
388.023
389.582
390.843
391.778
392.359
392.558
392.351
391.714
390.626
389.069
387.028
384.493
381.454
377.908
373.853
369.292
364.231
358.675
352.632
346.106
339.098
331.596
323.562
314.907
305.421
303.638
309.585
314.79
319.519
323.914
328.064
332.029
335.851
339.562
343.185
346.738
350.232
353.677
357.074
360.425
363.724
366.964
370.136
373.224
376.212
379.08
381.806
384.366
386.734
388.881
390.78
392.399
393.71
394.683
395.288
395.497
395.285
394.627
393.502
391.891
389.778
387.153
384.007
380.335
376.138
371.418
366.181
360.435
354.187
347.445
340.209
332.47
324.191
315.286
305.548
303.687
309.733
315.036
319.863
324.357
328.607
332.672
336.595
340.407
344.132
347.787
351.385
354.933
358.434
361.888
365.29
368.633
371.905
375.091
378.175
381.136
383.951
386.595
389.04
391.258
393.219
394.893
396.248
397.254
397.881
398.1
397.883
397.207
396.049
394.39
392.214
389.509
386.268
382.485
378.162
373.3
367.908
361.993
355.564
348.63
341.193
333.243
324.748
315.623
305.661
303.729
309.859
315.247
320.159
324.739
329.075
333.226
337.235
341.135
344.948
348.692
352.379
356.017
359.608
363.151
366.643
370.074
373.434
376.706
379.874
382.915
385.807
388.523
391.036
393.316
395.332
397.053
398.446
399.482
400.127
400.354
400.135
399.443
398.257
396.556
394.324
391.551
388.227
384.348
379.915
374.932
369.404
363.343
356.757
349.657
342.045
333.913
325.231
315.914
305.758
303.764
309.965
315.424
320.407
325.058
329.465
333.689
337.771
341.744
345.632
349.45
353.212
356.925
360.592
364.211
367.778
371.284
374.717
378.062
381.3
384.409
387.366
390.144
392.714
395.046
397.108
398.869
400.295
401.355
402.017
402.251
402.029
401.324
400.114
398.378
396.1
393.269
389.875
385.916
381.39
376.304
370.663
364.479
357.761
350.52
342.761
334.477
325.637
316.159
305.84
303.792
310.05
315.566
320.606
325.314
329.779
334.061
338.202
342.234
346.181
350.059
353.882
357.656
361.383
365.063
368.691
372.257
375.75
379.154
382.448
385.613
388.622
391.45
394.066
396.439
398.539
400.332
401.785
402.865
403.541
403.78
403.556
402.841
401.611
399.847
397.532
394.654
391.204
387.179
382.58
377.41
371.678
365.394
358.57
351.217
343.339
334.931
325.964
316.356
305.906
303.814
310.114
315.672
320.755
325.506
330.015
334.34
338.526
342.602
346.594
350.518
354.386
358.205
361.979
365.705
369.379
372.991
376.529
379.976
383.314
386.52
389.57
392.434
395.085
397.491
399.619
401.436
402.909
404.005
404.69
404.934
404.708
403.985
402.741
400.956
398.613
395.699
392.207
388.133
383.478
378.245
372.444
366.085
359.181
351.742
343.775
335.274
326.211
316.505
305.956
303.828
310.157
315.743
320.855
325.635
330.173
334.527
338.742
342.848
346.87
350.824
354.723
358.573
362.378
366.135
369.839
373.482
377.05
380.527
383.894
387.128
390.204
393.093
395.768
398.195
400.342
402.176
403.662
404.768
405.46
405.707
405.48
404.752
403.498
401.698
399.336
396.399
392.879
388.772
384.079
378.804
372.957
366.548
359.59
352.094
344.067
335.504
326.377
316.605
305.989
303.835
310.178
315.779
320.905
325.699
330.251
334.621
338.85
342.971
347.008
350.978
354.892
358.757
362.577
366.35
370.07
373.728
377.311
380.803
384.184
387.432
390.521
393.424
396.11
398.548
400.705
402.547
404.04
405.151
405.846
406.095
405.867
405.136
403.877
402.071
399.699
396.75
393.216
389.092
384.38
379.085
373.214
366.78
359.795
352.27
344.213
335.619
326.46
316.655
306.006
303.835
310.178
315.779
320.905
325.699
330.251
334.621
338.85
342.971
347.008
350.978
354.892
358.757
362.577
366.35
370.07
373.728
377.311
380.803
384.184
387.432
390.521
393.424
396.11
398.548
400.705
402.547
404.04
405.151
405.846
406.095
405.867
405.136
403.877
402.071
399.699
396.75
393.216
389.092
384.38
379.085
373.214
366.78
359.795
352.27
344.213
335.619
326.46
316.655
306.006
303.828
310.157
315.743
320.855
325.635
330.173
334.527
338.742
342.848
346.87
350.824
354.723
358.573
362.378
366.135
369.839
373.482
377.05
380.527
383.894
387.128
390.204
393.094
395.768
398.195
400.342
402.176
403.662
404.768
405.46
405.707
405.48
404.752
403.498
401.698
399.336
396.399
392.879
388.772
384.079
378.804
372.957
366.548
359.59
352.094
344.067
335.504
326.377
316.605
305.989
303.814
310.114
315.672
320.755
325.506
330.015
334.34
338.526
342.602
346.594
350.518
354.386
358.206
361.979
365.705
369.379
372.991
376.529
379.976
383.314
386.52
389.57
392.434
395.085
397.491
399.619
401.437
402.91
404.005
404.69
404.934
404.708
403.985
402.741
400.956
398.613
395.699
392.207
388.133
383.478
378.245
372.444
366.085
359.181
351.742
343.775
335.274
326.211
316.505
305.956
303.792
310.05
315.566
320.606
325.314
329.779
334.061
338.202
342.234
346.181
350.059
353.882
357.656
361.383
365.063
368.691
372.257
375.75
379.154
382.448
385.613
388.622
391.45
394.066
396.44
398.539
400.332
401.785
402.865
403.541
403.78
403.556
402.841
401.611
399.847
397.532
394.654
391.204
387.179
382.58
377.41
371.678
365.394
358.57
351.217
343.339
334.931
325.964
316.356
305.906
303.764
309.965
315.424
320.407
325.058
329.465
333.689
337.771
341.744
345.632
349.45
353.212
356.925
360.592
364.211
367.778
371.284
374.717
378.062
381.3
384.41
387.366
390.144
392.714
395.046
397.108
398.869
400.295
401.355
402.017
402.251
402.029
401.324
400.114
398.378
396.1
393.269
389.875
385.915
381.39
376.304
370.663
364.479
357.761
350.52
342.761
334.477
325.637
316.159
305.84
303.729
309.859
315.247
320.159
324.739
329.075
333.226
337.235
341.135
344.948
348.692
352.379
356.017
359.608
363.151
366.643
370.074
373.434
376.706
379.874
382.915
385.807
388.523
391.036
393.316
395.332
397.053
398.447
399.482
400.128
400.355
400.135
399.443
398.257
396.556
394.324
391.551
388.227
384.348
379.915
374.932
369.404
363.343
356.757
349.657
342.044
333.913
325.231
315.914
305.758
303.687
309.733
315.036
319.863
324.357
328.607
332.672
336.595
340.407
344.132
347.787
351.385
354.933
358.434
361.888
365.29
368.633
371.905
375.092
378.176
381.136
383.951
386.595
389.04
391.258
393.22
394.893
396.248
397.254
397.881
398.1
397.883
397.207
396.049
394.39
392.214
389.509
386.267
382.485
378.162
373.3
367.908
361.993
355.564
348.63
341.192
333.243
324.748
315.623
305.66
303.638
309.585
314.79
319.519
323.914
328.064
332.029
335.851
339.562
343.185
346.738
350.233
353.677
357.074
360.425
363.724
366.965
370.136
373.224
376.212
379.08
381.806
384.366
386.734
388.882
390.78
392.4
393.71
394.683
395.288
395.497
395.285
394.627
393.502
391.891
389.778
387.153
384.006
380.335
376.138
371.418
366.181
360.434
354.187
347.445
340.209
332.47
324.191
315.286
305.548
303.582
309.417
314.51
319.126
323.409
327.446
331.297
335.005
338.601
342.109
345.546
348.924
352.251
355.532
358.766
361.949
365.075
368.133
371.11
373.99
376.754
379.381
381.847
384.127
386.196
388.023
389.582
390.844
391.778
392.359
392.558
392.351
391.714
390.626
389.069
387.028
384.493
381.454
377.908
373.853
369.292
364.231
358.675
352.631
346.106
339.098
331.596
323.562
314.907
305.421
303.519
309.229
314.196
318.686
322.842
326.753
330.477
334.057
337.525
340.904
344.212
347.461
350.659
353.81
356.915
359.97
362.968
365.901
368.755
371.516
374.165
376.682
379.045
381.23
383.21
384.96
386.452
387.659
388.553
389.107
389.295
389.093
388.479
387.433
385.936
383.976
381.539
378.62
375.212
371.316
366.932
362.065
356.72
350.904
344.619
337.865
330.625
322.862
314.485
305.28
303.449
309.02
313.847
318.197
322.214
325.985
329.569
333.009
336.336
339.573
342.74
345.847
348.903
351.912
354.876
357.79
360.65
363.447
366.167
368.798
371.322
373.72
375.97
378.05
379.936
381.601
383.021
384.169
385.018
385.543
385.72
385.524
384.936
383.935
382.505
380.631
378.304
375.515
372.26
368.536
364.346
359.692
354.578
349.01
342.989
336.512
329.561
322.095
314.022
305.125
303.372
308.789
313.463
317.66
321.523
325.141
328.572
331.858
335.032
338.116
341.129
344.082
346.985
349.841
352.652
355.415
358.125
360.775
363.351
365.842
368.232
370.501
372.63
374.598
376.382
377.957
379.299
380.383
381.185
381.68
381.844
381.656
381.096
380.144
378.786
377.007
374.798
372.15
369.059
365.522
361.541
357.118
352.255
346.956
341.221
335.044
328.406
321.263
313.52
304.957
303.288
308.537
313.044
317.073
320.769
324.22
327.485
330.605
333.613
336.532
339.379
342.167
344.905
347.597
350.245
352.847
355.397
357.889
360.313
362.655
364.901
367.033
369.034
370.883
372.558
374.037
375.297
376.314
377.065
377.527
377.679
377.5
376.97
376.071
374.79
373.113
371.03
368.533
365.619
362.283
358.526
354.35
349.757
344.746
339.318
333.464
327.163
320.367
312.979
304.777
303.197
308.263
312.587
316.435
319.95
323.22
326.305
329.247
332.077
334.819
337.489
340.102
342.664
345.182
347.657
350.087
352.469
354.795
357.056
359.24
361.335
363.323
365.188
366.911
368.472
369.85
371.023
371.969
372.668
373.097
373.236
373.066
372.568
371.727
370.528
368.959
367.01
364.674
361.947
358.825
355.307
351.394
347.087
342.385
337.284
331.775
325.833
319.409
312.4
304.583
303.097
307.965
312.09
315.741
319.061
322.137
325.03
327.781
330.421
332.974
335.457
337.883
340.26
342.594
344.887
347.137
349.34
351.492
353.583
355.602
357.538
359.375
361.098
362.69
364.131
365.403
366.485
367.358
368.002
368.396
368.522
368.362
367.9
367.119
366.007
364.552
362.745
360.579
358.05
355.153
351.888
348.254
344.25
339.874
335.121
329.977
324.417
318.388
311.784
304.377
302.989
307.64
311.551
314.989
318.098
320.966
323.652
326.2
328.638
330.992
333.277
335.507
337.69
339.831
341.932
343.993
346.011
347.981
349.894
351.742
353.512
355.192
356.767
358.222
359.539
360.701
361.689
362.486
363.073
363.432
363.545
363.396
362.97
362.253
361.232
359.897
358.24
356.252
353.93
351.271
348.271
344.93
341.245
337.213
332.827
328.071
322.915
317.305
311.13
304.158
302.871
307.287
310.964
314.171
317.053
319.698
322.165
324.496
326.721
328.864
330.942
332.966
334.945
336.885
338.787
340.653
342.478
344.258
345.988
347.657
349.256
350.773
352.196
353.509
354.698
355.746
356.638
357.356
357.885
358.207
358.308
358.171
357.784
357.133
356.208
354.998
353.496
351.695
349.59
347.178
344.456
341.421
338.071
334.401
330.4
326.052
321.324
316.156
310.435
303.926
302.742
306.9
310.323
313.28
315.916
318.322
320.554
322.656
324.657
326.58
328.44
330.25
332.017
333.748
335.445
337.107
338.733
340.318
341.857
343.343
344.766
346.116
347.381
348.548
349.605
350.537
351.329
351.967
352.436
352.722
352.809
352.686
352.34
351.759
350.933
349.853
348.512
346.905
345.025
342.871
340.437
337.723
334.723
331.43
327.834
323.915
319.636
314.937
309.698
303.679
302.599
306.473
309.616
312.3
314.672
316.821
318.805
320.664
322.429
324.121
325.755
327.342
328.891
330.406
331.89
333.343
334.764
336.149
337.493
338.79
340.032
341.21
342.314
343.332
344.254
345.067
345.758
346.314
346.722
346.97
347.045
346.936
346.632
346.123
345.4
344.455
343.281
341.873
340.227
338.339
336.206
333.823
331.187
328.289
325.116
321.647
317.844
313.64
308.913
303.416
302.438
305.994
308.828
311.213
313.298
315.172
316.891
318.496
320.014
321.465
322.864
324.221
325.544
326.837
328.103
329.342
330.552
331.732
332.877
333.981
335.039
336.041
336.981
337.847
338.632
339.323
339.91
340.383
340.729
340.94
341.003
340.909
340.649
340.214
339.597
338.79
337.788
336.586
335.181
333.567
331.743
329.705
327.446
324.958
322.227
319.231
315.928
312.25
308.07
303.134
302.254
305.449
307.933
309.988
311.761
313.339
314.778
316.115
317.375
318.577
319.733
320.854
321.945
323.011
324.053
325.073
326.069
327.04
327.982
328.89
329.759
330.584
331.356
332.068
332.713
333.281
333.763
334.151
334.436
334.608
334.659
334.581
334.367
334.008
333.499
332.834
332.008
331.018
329.859
328.528
327.022
325.337
323.468
321.406
319.136
316.635
313.862
310.745
307.154
302.826
302.036
304.806
306.892
308.578
310.009
311.271
312.413
313.469
314.461
315.406
316.313
317.191
318.045
318.879
319.694
320.492
321.27
322.029
322.764
323.473
324.152
324.796
325.399
325.955
326.458
326.901
327.277
327.58
327.802
327.936
327.976
327.914
327.746
327.465
327.067
326.547
325.901
325.125
324.218
323.176
321.996
320.675
319.207
317.585
315.795
313.813
311.601
309.086
306.137
302.482
301.762
304.012
305.631
306.901
307.96
308.883
309.713
310.477
311.193
311.873
312.525
313.156
313.769
314.367
314.952
315.524
316.082
316.625
317.152
317.661
318.147
318.608
319.04
319.438
319.798
320.115
320.385
320.602
320.76
320.856
320.884
320.84
320.719
320.518
320.232
319.859
319.395
318.839
318.188
317.439
316.592
315.642
314.586
313.416
312.122
310.683
309.065
307.202
304.965
302.081
301.38
302.956
304.015
304.815
305.469
306.033
306.537
307
307.433
307.843
308.236
308.616
308.985
309.345
309.697
310.041
310.377
310.703
311.02
311.326
311.618
311.895
312.155
312.394
312.611
312.801
312.963
313.094
313.189
313.246
313.263
313.236
313.164
313.042
312.87
312.646
312.367
312.032
311.64
311.189
310.679
310.107
309.469
308.763
307.98
307.106
306.116
304.959
303.529
301.572
300.736
301.38
301.763
302.04
302.262
302.452
302.621
302.776
302.921
303.058
303.19
303.316
303.44
303.56
303.677
303.792
303.904
304.013
304.119
304.221
304.318
304.411
304.497
304.577
304.65
304.713
304.767
304.811
304.842
304.862
304.867
304.858
304.834
304.793
304.736
304.661
304.568
304.456
304.325
304.175
304.004
303.813
303.6
303.364
303.101
302.808
302.474
302.078
301.571
300.8
300.297
300.733
301.055
301.31
301.522
301.708
301.875
302.029
302.173
302.31
302.441
302.568
302.691
302.812
302.929
303.044
303.157
303.266
303.372
303.474
303.572
303.665
303.751
303.832
303.904
303.968
304.022
304.065
304.097
304.117
304.122
304.113
304.089
304.048
303.991
303.916
303.822
303.71
303.579
303.429
303.258
303.067
302.855
302.62
302.359
302.07
301.745
301.371
300.924
300.361
300.732
301.908
302.827
303.57
304.199
304.75
305.248
305.707
306.138
306.547
306.94
307.32
307.69
308.051
308.403
308.748
309.084
309.412
309.729
310.036
310.329
310.606
310.867
311.107
311.324
311.515
311.677
311.808
311.903
311.961
311.978
311.951
311.878
311.757
311.585
311.36
311.08
310.745
310.352
309.902
309.391
308.819
308.183
307.48
306.702
305.84
304.874
303.773
302.483
300.925
301.054
302.824
304.259
305.45
306.472
307.375
308.195
308.954
309.667
310.345
310.997
311.628
312.242
312.842
313.427
314
314.559
315.104
315.633
316.142
316.63
317.092
317.525
317.924
318.285
318.603
318.874
319.091
319.25
319.346
319.374
319.33
319.209
319.007
318.721
318.347
317.883
317.326
316.674
315.925
315.077
314.128
313.074
311.909
310.623
309.203
307.621
305.835
303.779
301.374
301.306
303.561
305.441
307.034
308.42
309.658
310.787
311.836
312.824
313.767
314.674
315.552
316.408
317.243
318.059
318.858
319.639
320.399
321.136
321.847
322.528
323.173
323.778
324.335
324.839
325.284
325.661
325.965
326.187
326.322
326.362
326.3
326.132
325.85
325.451
324.93
324.283
323.507
322.598
321.555
320.375
319.055
317.59
315.973
314.194
312.234
310.066
307.642
304.896
301.753
301.515
304.178
306.445
308.399
310.121
311.672
313.095
314.424
315.679
316.879
318.035
319.157
320.249
321.317
322.361
323.383
324.382
325.355
326.299
327.209
328.081
328.907
329.682
330.396
331.042
331.611
332.095
332.484
332.77
332.943
332.994
332.916
332.701
332.342
331.832
331.166
330.338
329.346
328.186
326.854
325.347
323.663
321.797
319.741
317.484
315.008
312.284
309.265
305.888
302.088
301.694
304.712
307.32
309.6
311.63
313.474
315.177
316.773
318.286
319.735
321.134
322.492
323.816
325.112
326.38
327.621
328.835
330.017
331.165
332.272
333.332
334.338
335.279
336.148
336.935
337.628
338.217
338.69
339.038
339.249
339.313
339.219
338.958
338.523
337.904
337.096
336.092
334.888
333.481
331.866
330.041
328.003
325.747
323.266
320.549
317.579
314.328
310.752
306.793
302.392
301.852
305.183
308.098
310.674
312.989
315.107
317.073
318.923
320.683
322.373
324.007
325.595
327.146
328.664
330.15
331.607
333.031
334.419
335.767
337.067
338.312
339.493
340.6
341.621
342.545
343.36
344.053
344.61
345.02
345.269
345.344
345.235
344.931
344.421
343.696
342.749
341.573
340.163
338.515
336.625
334.49
332.108
329.474
326.583
323.425
319.983
316.232
312.133
307.63
302.672
301.994
305.607
308.799
311.646
314.225
316.598
318.813
320.905
322.901
324.821
326.682
328.493
330.263
331.997
333.697
335.363
336.992
338.582
340.125
341.614
343.041
344.394
345.662
346.833
347.893
348.827
349.621
350.261
350.731
351.018
351.106
350.983
350.636
350.053
349.226
348.144
346.801
345.191
343.309
341.151
338.717
336.002
333.004
329.718
326.136
322.245
318.02
313.426
308.413
302.934
302.123
305.992
309.438
312.534
315.357
317.969
320.418
322.739
324.96
327.101
329.179
331.205
333.187
335.13
337.037
338.906
340.735
342.52
344.254
345.927
347.531
349.052
350.478
351.795
352.986
354.038
354.932
355.652
356.182
356.506
356.607
356.47
356.082
355.43
354.503
353.291
351.786
349.982
347.874
345.459
342.735
339.699
336.351
332.687
328.701
324.38
319.705
314.643
309.149
303.181
302.24
306.344
310.023
313.349
316.399
319.235
321.903
324.44
326.875
329.227
331.513
333.745
335.931
338.075
340.181
342.247
344.27
346.244
348.162
350.014
351.789
353.474
355.053
356.512
357.832
358.997
359.988
360.788
361.376
361.736
361.85
361.701
361.274
360.555
359.533
358.195
356.534
354.543
352.218
349.555
346.552
343.21
339.527
335.501
331.128
326.399
321.297
315.792
309.843
303.413
302.349
306.668
310.561
314.1
317.361
320.405
323.28
326.021
328.657
331.209
333.693
336.122
338.503
340.841
343.138
345.393
347.602
349.759
351.855
353.879
355.82
357.662
359.39
360.985
362.43
363.706
364.791
365.667
366.312
366.708
366.834
366.674
366.211
365.428
364.314
362.856
361.046
358.876
356.343
353.442
350.174
346.538
342.534
338.164
333.424
328.307
322.8
316.876
310.498
303.632
302.448
306.966
311.058
314.794
318.25
321.488
324.556
327.488
330.314
333.055
335.727
338.342
340.909
343.431
345.911
348.347
350.734
353.066
355.333
357.523
359.623
361.616
363.487
365.214
366.779
368.16
369.337
370.286
370.986
371.417
371.556
371.386
370.887
370.044
368.843
367.271
365.318
362.978
360.246
357.12
353.598
349.683
345.376
340.679
335.591
330.107
324.217
317.898
311.115
303.838
302.54
307.241
311.515
315.433
319.071
322.489
325.736
328.847
331.851
334.77
337.619
340.41
343.153
345.85
348.504
351.111
353.668
356.166
358.596
360.944
363.195
365.333
367.34
369.193
370.873
372.356
373.619
374.639
375.392
375.856
376.009
375.829
375.298
374.398
373.114
371.433
369.346
366.845
363.925
360.585
356.824
352.645
348.05
343.044
337.628
331.8
325.549
318.858
311.694
304.032
302.624
307.493
311.935
316.02
319.825
323.411
326.824
330.102
333.272
336.356
339.371
342.328
345.236
348.098
350.915
353.684
356.401
359.057
361.64
364.137
366.533
368.808
370.943
372.916
374.705
376.284
377.63
378.717
379.521
380.017
380.182
379.994
379.432
378.479
377.118
375.336
373.122
370.469
367.372
363.831
359.845
355.418
350.554
345.259
339.535
333.382
326.795
319.756
312.236
304.213
302.701
307.724
312.319
316.558
320.517
324.256
327.823
331.254
334.578
337.816
340.985
344.097
347.158
350.173
353.143
356.064
358.931
361.734
364.462
367.099
369.63
372.034
374.29
376.376
378.266
379.937
381.36
382.511
383.363
383.889
384.067
383.871
383.282
382.278
380.845
378.968
376.636
373.842
370.58
366.851
362.655
357.997
352.882
347.317
341.307
334.853
327.953
320.59
312.739
304.381
302.77
307.933
312.669
317.048
321.146
325.026
328.733
332.305
335.77
339.15
342.461
345.714
348.918
352.075
355.186
358.248
361.254
364.194
367.056
369.824
372.479
375.003
377.372
379.563
381.549
383.303
384.8
386.01
386.906
387.461
387.65
387.449
386.833
385.784
384.285
382.32
379.879
376.954
373.54
369.637
365.248
360.376
355.029
349.215
342.94
336.209
329.019
321.358
313.203
304.536
302.833
308.122
312.984
317.489
321.714
325.72
329.555
333.255
336.848
340.357
343.797
347.18
350.513
353.801
357.042
360.232
363.365
366.431
369.416
372.303
375.074
377.708
380.181
382.468
384.541
386.374
387.937
389.202
390.139
390.722
390.922
390.714
390.076
388.985
387.425
385.38
382.839
379.795
376.242
372.181
367.614
362.547
356.988
350.947
344.431
337.446
329.992
322.059
313.626
304.678
302.889
308.29
313.264
317.882
322.22
326.34
330.288
334.103
337.811
341.436
344.992
348.492
351.942
355.347
358.704
362.011
365.26
368.439
371.535
374.531
377.406
380.14
382.707
385.081
387.234
389.137
390.761
392.076
393.051
393.658
393.868
393.655
392.996
391.868
390.254
388.137
385.506
382.354
378.675
374.471
369.745
364.502
358.752
352.506
345.772
338.559
330.868
322.69
314.007
304.805
302.939
308.438
313.51
318.227
322.665
326.884
330.933
334.848
338.658
342.385
346.044
349.647
353.201
356.71
360.171
363.581
366.932
370.212
373.407
376.499
379.468
382.29
384.941
387.392
389.617
391.583
393.261
394.62
395.629
396.257
396.477
396.26
395.583
394.422
392.759
390.579
387.868
384.62
380.831
376.5
371.632
366.233
360.314
353.886
346.961
339.545
331.644
323.249
314.344
304.918
302.981
308.565
313.722
318.524
323.047
327.352
331.488
335.49
339.388
343.203
346.951
350.644
354.288
357.886
361.438
364.937
368.377
371.745
375.026
378.202
381.251
384.151
386.874
389.394
391.679
393.701
395.426
396.824
397.862
398.51
398.738
398.518
397.825
396.635
394.931
392.695
389.915
386.584
382.699
378.258
373.267
367.733
361.668
355.083
347.99
340.399
332.315
323.733
314.636
305.015
303.016
308.671
313.899
318.772
323.367
327.744
331.952
336.028
339.999
343.888
347.711
351.479
355.198
358.873
362.5
366.075
369.59
373.032
376.385
379.632
382.749
385.714
388.499
391.076
393.414
395.481
397.247
398.677
399.74
400.404
400.639
400.417
399.71
398.497
396.757
394.475
391.637
388.237
384.27
379.737
374.643
368.995
362.807
356.089
348.856
341.118
332.88
324.14
314.881
305.097
303.045
308.756
314.041
318.972
323.624
328.059
332.325
336.459
340.49
344.438
348.321
352.15
355.931
359.666
363.354
366.991
370.566
374.068
377.48
380.783
383.956
386.973
389.808
392.431
394.811
396.917
398.714
400.171
401.254
401.932
402.172
401.948
401.231
399.998
398.231
395.911
393.026
389.57
385.537
380.929
375.752
370.013
363.725
356.9
349.554
341.697
333.336
324.468
315.079
305.164
303.066
308.82
314.148
319.121
323.816
328.295
332.605
336.784
340.859
344.853
348.781
352.655
356.482
360.263
363.998
367.681
371.301
374.848
378.305
381.651
384.866
387.923
390.795
393.453
395.865
397.999
399.822
401.299
402.397
403.084
403.329
403.103
402.378
401.132
399.342
396.994
394.074
390.575
386.493
381.83
376.589
370.781
364.418
357.513
350.081
342.134
333.68
324.716
315.229
305.214
303.08
308.863
314.219
319.221
323.945
328.453
332.792
337
341.106
345.129
349.088
352.993
356.851
360.663
364.429
368.142
371.793
375.37
378.857
382.232
385.474
388.558
391.456
394.138
396.571
398.724
400.563
402.053
403.162
403.856
404.104
403.877
403.147
401.89
400.087
397.72
394.776
391.249
387.134
382.432
377.15
371.295
364.882
357.923
350.433
342.427
333.91
324.882
315.329