/*--------------------------------*- C++ -*----------------------------------*\
| =========                 |                                                 |
| \\      /  F ield         | OpenFOAM: The Open Source CFD Toolbox           |
|  \\    /   O peration     | Version:  5.x                                   |
|   \\  /    A nd           | Web:      www.OpenFOAM.org                      |
|    \\/     M anipulation  |                                                 |
\*---------------------------------------------------------------------------*/
FoamFile
{
    version     2.0;
    format      ascii;
    class       volScalarField;
    location    "0.6";
    object      gradTy;
}
// * * * * * * * * * * * * * * * * * * * * * * * * * * * * * * * * * * * * * //

dimensions      [0 -1 0 1 0 0 0];

internalField   nonuniform List<scalar> 
25000
(
5156.61
10445.3
13793.8
16240.1
18202.7
19880.5
21381.7
22771.9
24093.9
25377.3
26643.3
27906.9
29179
30467
31775.3
33105.6
34457.3
35827.6
37211.7
38602.5
39991.3
41367.4
42718.4
44030.3
45287.8
46474.2
47571.7
48561.7
49424.9
50141.8
50692.8
51058.5
51220.3
51160.4
50862.2
50310.8
49492.8
48397.1
47014.3
45336.8
43358.7
41074.2
38476.8
35556.2
32293.2
28650.2
24550.5
19830
14107.5
6384.12
2434.49
6189.51
9024.82
11266.9
13134.6
14762.3
16234.6
17606.8
18917.1
20192.7
21453.2
22713.2
23982.9
25269.4
26576.8
27906.8
29258.6
30629.4
32014.1
33405.9
34795.8
36173.2
37525.6
38839.1
40098.2
41286.3
42385.4
43377.1
44241.9
44960.5
45513.1
45880.4
46043.7
45985.2
45688.5
45138.5
44322.2
43228.3
41847.8
40173.5
38199.7
35921.7
33334.2
30429.4
27192.9
23597.1
19589.3
15069.8
9857
3663.78
1513.3
4241.98
6564.39
8544.1
10269.4
11814.7
13236.4
14576.1
15864.7
17125.4
18375.7
19628.6
20893.5
22176.9
23482.5
24811.7
26163.5
27535
28921
30314.4
31706.4
33086.1
34441.2
35757.5
37019.6
38210.7
39313
40307.8
41175.8
41897.5
42453.1
42823.4
42989.6
42934
42640.1
42093.1
41280
40189.9
38814
37145.8
35180.5
32914.7
30345.6
27469.3
24278.7
20760.1
16888.9
12625.6
7919.36
2745.91
1107.3
3222.76
5151.32
6888.33
8463.18
9912.89
11271.9
12569.4
13828.9
15069.3
16305.2
17547.9
18805.7
20084.3
21387
22714.6
24066.1
25438.1
26825.4
28220.8
29615.3
30998
32356.4
33676.4
34942.3
36137.5
37244
38243.1
39115.4
39841.3
40401.2
40775.6
40946
40894.5
40604.7
40062.1
39253.9
38169.4
36800.4
35141.1
33187.9
30939.1
28394.7
25555.3
22421.1
18991.2
15262.9
11234.2
6913.26
2344.31
887.333
2621.71
4264.5
5800.32
7236.46
8590.51
9882.87
11133.2
12358.9
13574.8
14792.9
16022.6
17271.1
18543.2
19841.4
21166.4
22516.6
23888.5
25276.6
26673.7
28070.5
29456.2
30817.9
32141.7
33411.8
34611.4
35722.5
36726.3
37603.5
38334.4
38899.3
39278.8
39454.2
39407.9
39123.6
38586.9
37785.1
36708.1
35348.3
33700.6
31762.7
29534.7
27019.3
24221.2
21147
17805.2
14207.3
10370.9
6326.53
2129.14
750.241
2231.91
3666.44
5041.26
6356.9
7621.89
8848.56
10050.2
11239.6
12428.3
13625.8
14840
16076.9
17340.4
18632.4
19953
21300.4
22670.8
24058.5
25456.1
26854.2
28241.8
29606.1
30932.9
32206.6
33410.1
34525.5
35533.9
36415.9
37151.9
37722
38107
38288.2
38248
37970.3
37440.8
36647.2
35579.8
34231.5
32598.1
30678.5
28474.6
25991.2
23236.6
20222
16962.5
13477.6
9794.22
5949.7
1996.4
656.409
1959.85
3238.7
4485.03
5698.23
6883.08
8047.56
9201.03
10353
11512.5
12687.2
13883.5
15106.3
16358.7
17642
18955.9
20298.2
21664.9
23050
24446
25843.4
27231
28596
29924.2
31199.8
32405.8
33524.2
34536.1
35422.1
36162.5
36737.6
37128
37315.3
37281.9
37011.8
36491
35707.4
34651.9
33317.7
31701.6
29803.5
27626.7
25178.1
22468.3
19512
16328.1
12940.8
9380.62
5686.24
1905.45
587.71
1758.54
2917.15
4059.52
5185.69
6299.15
7405.69
8512.36
9626.54
10755.3
11905
13080.9
14286.7
15525
16796.7
18100.7
19434.8
20794.5
22173.9
23565.1
24958.6
26343.1
27705.9
29032.6
30307.4
31513.3
32632.4
33645.7
34534
35277.4
35856.5
36251.9
36445.1
36418.9
36157.4
35646.7
34875.3
33834.1
32517.2
30921.9
29049
26902.9
24492.2
21829.2
18930.6
15817.8
12517.1
9060.43
5485.76
1837.03
534.632
1602
2664.4
3720.68
4771.95
5821.46
6874
7935.29
9011.33
10107.9
11230.3
12382.8
13568.4
14789.1
16045.1
17335.4
18657.1
20005.7
21375
22757
24142.3
25519.6
26875.9
28196.9
29467
30669.2
31785.6
32797.3
33685.1
34429.5
35010.8
35410
35608.7
35589.9
35337.8
34838.8
34081.8
33058
31761.9
30191.6
28348.4
26237.8
23869.2
21256.2
18416.9
15373.8
12154.3
8790.32
5318.7
1780.43
491.637
1474.62
2457.14
3440.01
4425.39
5416.67
6418.25
7435.09
8472.35
9534.97
10627.3
11753
12914.5
14113.3
15349.2
16620.7
17924.9
19257
20610.8
21978.3
23349.8
24714.2
26058.5
27368.7
28628.9
29822.5
30931.7
31937.7
32821.4
33563.6
34144.7
34546
34749.4
34737.8
34495.9
34010.4
33270.3
32267.4
30996.6
29456.3
27648.5
25579.2
23258.5
20701
17925.1
14954.2
11815.6
8540.91
5165.78
1728.87
455.228
1366.41
2279.98
3198.16
4123.91
5060.91
6013.41
6985.99
7983.25
9009.53
10068.6
11163.6
12296.4
13468.2
14678.4
15925.4
17206
18515.3
19847
21193.2
22544.2
23888.9
25214.7
26507.3
27751.4
28930.4
30026.6
31021.8
31897
32633
33210.9
33612.1
33818.6
33814
33583.1
33112.9
32392.8
31414.9
30174.4
28670.1
26904.5
24884
22619
20124.4
17419.1
14526.4
11473.3
8290.85
5013.34
1677.65
423.062
1270.56
2122.29
2981.42
3851.51
4736.5
5640.62
6568.23
7523.55
8510.51
9532.48
10592.1
11691
12829.9
14008.2
15223.9
16473.8
17752.9
19054.9
20372
21694.6
23011.8
24311.1
25578.5
26799
27956.2
29032.9
30011.1
30872.2
31597.5
32168.4
32566.6
32774.8
32776.5
32557.3
32104.5
31407.6
30459.3
29255
27793.9
26078.6
24115.8
21916.2
19494.5
16869.7
14064.6
11106
8023.83
4851.18
1623.25
393.49
1182.25
1976.42
2779.78
3596.28
4430.06
5285.37
6166.37
7077.07
8021.06
9001.39
10020.4
11079.4
12179
13318.2
14495.1
15706.3
16946.9
18210.7
19489.9
20775.2
22055.9
23319.7
24553.2
25741.6
26868.9
27918.5
28872.7
29713.5
30422.7
30982.2
31374.2
31581.9
31589.4
31382.6
30949.2
30279.3
29365.7
28204.4
26794.5
25138.9
23244.3
21121.3
18784.7
16252.8
13548.2
10696.6
7727.13
4671.37
1563.01
365.317
1097.98
1836.74
2585.75
3349.2
4131.34
4936.36
5768.31
6630.97
7527.71
8461.3
9433.81
10446.5
11499.4
12591.9
13721.7
14885.5
16078.5
17294.7
18526.3
19764.5
20998.9
22217.5
23407.4
24554.3
25642.8
26656.8
27579.3
28392.9
29080.1
29623.3
30005.5
30210.4
30222.8
30029.1
29617.5
28978.5
28105.4
26994.2
25644.4
24059
22244.4
20211.2
17973.6
15549.6
12960.7
10231.8
7390.8
4467.79
1494.85
337.663
1015.14
1699.06
2393.74
3103.46
3832.46
4584.87
5364.59
6175.2
7019.84
7901.07
8820.75
9779.92
10778.7
11816.1
12890
13997.1
15132.8
16291.3
17465.1
18645.8
19823.2
20986.2
22122.2
23217.6
24257.8
25227.2
26109.6
26888.6
27547.2
28068.9
28437.3
28636.9
28653.2
28473.3
28085.9
27482.2
26655.5
25602.5
24322.5
22818.5
21096.9
19167.8
17044.8
14745.2
12289.5
9701.41
7007.32
4235.84
1417.22
309.881
931.817
1560.27
2199.55
2853.91
3527.5
4224.31
4948.04
5702.09
6489.36
7312.23
8172.37
9070.68
10007.2
10980.8
11989.7
13030.5
14098.8
15189.2
16294.5
17406.7
18516.3
19612.7
20684.1
21717.5
22699.3
23614.6
24448.4
25184.9
25808.3
26302.9
26653.4
26845
26864.2
26698.7
26338.1
25773.9
25000.1
24013.4
22813.4
21402.8
19787.9
17978.2
15986.5
13829.2
11525.7
9098.17
6571.42
3972.26
1329.02
281.505
846.639
1418.13
2000.18
2596.87
3212.18
3849.89
4513.49
5206.13
5930.51
6688.78
7482.47
8312.35
9178.37
10079.6
11014
11978.7
12969.4
13981
15006.9
16039.6
17070.3
18089
19084.8
20045.7
20958.8
21810.5
22586.8
23272.9
23854.2
24316.1
24644.3
24825.2
24846.2
24695.9
24364.6
23844.5
23130
22218
21108.3
19803.5
18309.4
16634.8
14791.8
12795.6
10664
8417.84
6079.94
3675.13
1229.6
252.22
758.672
1271.14
1793.58
2329.85
2883.64
3458.47
4057.57
4683.81
5339.66
6027.07
6747.39
7501.31
8288.73
9108.75
9959.54
10838.3
11741.3
12663.7
13599.4
14541.7
15482.4
16412.5
17321.9
18199.6
19034
19812.7
20522.5
21150.4
21682.8
22106.4
22408.1
22575.6
22597.3
22462.8
22163.3
21691.7
21042.9
20214.1
19205.1
18018.3
16659.1
15135.6
13458.7
11642.3
9702.8
7659.02
5531.82
3343.79
1118.74
221.838
667.36
1118.4
1578.59
2051.43
2540.29
3048.36
3578.54
4133.42
4715.21
5325.62
5965.86
6636.51
7337.48
8067.9
8826.15
9609.7
10415.2
11238.2
12073.4
12914.7
13754.9
14585.7
15398.2
16182.7
16928.7
17625
18260.1
18822.1
19299
19678.8
19950
20101.4
20122.7
20004.7
19739.4
19320.6
18743.6
18006.2
17107.9
16051.2
14840.6
13483.5
11989.7
10371.6
8643.79
6823.06
4928.03
2978.81
996.625
190.28
572.476
959.565
1354.75
1761.13
2181.68
2619.18
3076.2
3554.97
4057.43
4585.06
5138.89
5719.42
6326.54
6959.52
7616.88
8296.46
8995.25
9709.5
10434.6
11165
11894.7
12616.4
13322.4
14004.1
14652.5
15258
15810.3
16299.3
16714.5
17045.5
17282.3
17415.1
17435
17334.1
17105.3
16743.3
16244.1
15605.5
14827.5
13912
12863
11686.9
10392.2
8989.73
7492.14
5914
4271.45
2581.93
863.84
157.562
474.076
794.743
1122.28
1459.31
1808.35
2171.75
2551.66
2949.97
3368.29
3807.87
4269.55
4753.76
5260.38
5788.8
6337.77
6905.47
7489.39
8086.35
8692.5
9303.29
9913.46
10517.1
11107.8
11678.2
12220.9
12727.7
13190.2
13599.8
13947.7
14225.4
14424.2
14536.2
14553.9
14470.5
14280.3
13978.7
13562.4
13029.7
12380.5
11616.2
10740.5
9758.61
8677.65
7506.61
6256.12
4938.34
3566.78
2155.98
721.331
123.782
372.458
624.458
881.952
1147.04
1421.74
1707.9
2007.25
2321.29
2651.29
2998.24
3362.81
3745.32
4145.69
4563.42
4997.52
5446.54
5908.48
6380.84
6860.54
7343.99
7827.03
8304.98
8772.66
9224.45
9654.29
10055.8
10422.3
10746.9
11022.8
11243.1
11401.1
11490.3
11504.9
11439.5
11289.7
11051.6
10722.9
10302
9788.86
9184.79
8492.49
7716.18
6861.52
5935.6
4946.84
3904.86
2820.33
1704.79
570.374
89.1038
268.123
449.566
635.017
826.006
1023.99
1230.34
1446.29
1672.94
1911.2
2161.79
2425.21
2701.67
2991.12
3293.19
3607.16
3931.98
4266.2
4608
4955.17
5305.08
5654.73
6000.74
6339.35
6666.49
6977.77
7268.56
7534.05
7769.27
7969.22
8128.93
8243.55
8308.45
8319.35
8272.38
8164.26
7992.35
7754.79
7450.55
7079.57
6642.78
6142.15
5580.74
4962.64
4292.98
3577.86
2824.24
2039.85
1233.01
412.532
53.7455
161.73
271.19
383.086
498.352
617.873
742.476
872.916
1009.86
1153.85
1305.34
1464.62
1631.81
1806.89
1989.63
2179.6
2376.16
2578.42
2785.3
2995.43
3207.25
3418.92
3628.4
3833.41
4031.49
4219.99
4396.09
4556.88
4699.37
4820.51
4917.3
4986.8
5026.2
5032.93
5004.63
4939.32
4835.4
4691.74
4507.73
4283.32
4019.08
3716.21
3376.56
3002.59
2597.43
2164.75
1708.79
1234.19
746.027
249.6
17.9635
54.0561
90.6439
128.05
166.587
206.551
248.222
291.851
337.661
385.838
436.528
489.83
545.788
604.39
665.56
729.155
794.957
862.675
931.938
1002.3
1073.22
1144.09
1214.24
1282.89
1349.22
1412.34
1471.31
1525.16
1572.88
1613.45
1645.87
1669.15
1682.36
1684.62
1675.16
1653.3
1618.52
1570.44
1508.84
1433.72
1345.27
1243.89
1130.19
1005.02
869.396
724.57
571.949
413.096
249.701
83.5429
-17.9625
-54.053
-90.6382
-128.041
-166.573
-206.533
-248.197
-291.818
-337.618
-385.785
-436.464
-489.752
-545.697
-604.285
-665.441
-729.02
-794.808
-862.512
-931.761
-1002.11
-1073.02
-1143.89
-1214.02
-1282.67
-1349
-1412.12
-1471.1
-1524.96
-1572.69
-1613.28
-1645.71
-1669.02
-1682.25
-1684.55
-1675.12
-1653.3
-1618.55
-1570.5
-1508.94
-1433.85
-1345.43
-1244.07
-1130.38
-1005.21
-869.584
-724.743
-572.096
-413.209
-249.771
-83.5667
-53.7446
-161.727
-271.185
-383.078
-498.34
-617.855
-742.452
-872.884
-1009.82
-1153.8
-1305.28
-1464.54
-1631.72
-1806.79
-1989.52
-2179.47
-2376.01
-2578.26
-2785.12
-2995.25
-3207.05
-3418.71
-3628.19
-3833.2
-4031.28
-4219.77
-4395.88
-4556.68
-4699.18
-4820.34
-4917.15
-4986.67
-5026.11
-5032.86
-5004.59
-4939.31
-4835.43
-4691.8
-4507.83
-4283.45
-4019.24
-3716.39
-3376.74
-3002.78
-2597.61
-2164.92
-1708.93
-1234.3
-746.095
-249.623
-89.1032
-268.121
-449.562
-635.01
-825.996
-1023.98
-1230.32
-1446.26
-1672.9
-1911.15
-2161.74
-2425.14
-2701.59
-2991.03
-3293.08
-3607.04
-3931.84
-4266.05
-4607.84
-4954.99
-5304.9
-5654.54
-6000.54
-6339.15
-6666.28
-6977.56
-7268.36
-7533.86
-7769.09
-7969.06
-8128.79
-8243.43
-8308.36
-8319.28
-8272.35
-8164.26
-7992.38
-7754.85
-7450.64
-7079.69
-6642.92
-6142.32
-5580.91
-4962.82
-4293.16
-3578.02
-2824.38
-2039.95
-1233.08
-412.554
-123.782
-372.457
-624.456
-881.948
-1147.04
-1421.72
-1707.89
-2007.23
-2321.26
-2651.25
-2998.19
-3362.75
-3745.25
-4145.61
-4563.32
-4997.41
-5446.41
-5908.34
-6380.69
-6860.38
-7343.82
-7826.85
-8304.79
-8772.47
-9224.26
-9654.1
-10055.6
-10422.1
-10746.8
-11022.7
-11243
-11400.9
-11490.2
-11504.8
-11439.5
-11289.6
-11051.7
-10722.9
-10302.1
-9788.97
-9184.92
-8492.65
-7716.35
-6861.69
-5935.76
-4946.99
-3904.99
-2820.43
-1704.85
-570.395
-157.562
-474.076
-794.743
-1122.28
-1459.31
-1808.34
-2171.74
-2551.64
-2949.95
-3368.26
-3807.83
-4269.5
-4753.7
-5260.31
-5788.71
-6337.68
-6905.36
-7489.27
-8086.22
-8692.36
-9303.14
-9913.31
-10517
-11107.6
-11678
-12220.7
-12727.5
-13190
-13599.6
-13947.6
-14225.2
-14424.1
-14536.1
-14553.8
-14470.4
-14280.3
-13978.7
-13562.5
-13029.8
-12380.6
-11616.4
-10740.7
-9758.76
-8677.81
-7506.76
-6256.26
-4938.46
-3566.87
-2156.04
-721.35
-190.28
-572.478
-959.567
-1354.75
-1761.13
-2181.68
-2619.18
-3076.19
-3554.96
-4057.41
-4585.03
-5138.85
-5719.37
-6326.49
-6959.45
-7616.81
-8296.37
-8995.15
-9709.39
-10434.5
-11164.9
-11894.5
-12616.2
-13322.2
-14004
-14652.4
-15257.8
-15810.2
-16299.2
-16714.4
-17045.4
-17282.2
-17415
-17435
-17334.1
-17105.3
-16743.3
-16244.1
-15605.6
-14827.6
-13912.1
-12863.1
-11687
-10392.3
-8989.87
-7492.27
-5914.1
-4271.53
-2581.98
-863.857
-221.839
-667.363
-1118.41
-1578.59
-2051.43
-2540.3
-3048.36
-3578.54
-4133.42
-4715.2
-5325.61
-5965.84
-6636.48
-7337.43
-8067.85
-8826.09
-9609.63
-10415.1
-11238.1
-12073.3
-12914.6
-13754.7
-14585.6
-15398.1
-16182.6
-16928.6
-17624.9
-18260
-18822
-19298.9
-19678.7
-19949.9
-20101.3
-20122.6
-20004.6
-19739.4
-19320.6
-18743.7
-18006.2
-17108
-16051.3
-14840.7
-13483.6
-11989.9
-10371.7
-8643.9
-6823.15
-4928.1
-2978.85
-996.64
-252.221
-758.676
-1271.15
-1793.59
-2329.86
-2883.65
-3458.48
-4057.57
-4683.81
-5339.66
-6027.06
-6747.38
-7501.29
-8288.71
-9108.72
-9959.51
-10838.3
-11741.3
-12663.6
-13599.4
-14541.6
-15482.3
-16412.4
-17321.8
-18199.5
-19033.9
-19812.6
-20522.4
-21150.3
-21682.7
-22106.3
-22408.1
-22575.5
-22597.2
-22462.8
-22163.3
-21691.7
-21042.9
-20214.1
-19205.1
-18018.4
-16659.2
-15135.7
-13458.8
-11642.4
-9702.89
-7659.09
-5531.88
-3343.82
-1118.75
-281.507
-846.645
-1418.14
-2000.19
-2596.89
-3212.2
-3849.91
-4513.51
-5206.15
-5930.52
-6688.79
-7482.47
-8312.35
-9178.37
-10079.6
-11014
-11978.6
-12969.4
-13980.9
-15006.9
-16039.6
-17070.3
-18089
-19084.8
-20045.6
-20958.7
-21810.5
-22586.7
-23272.8
-23854.2
-24316.1
-24644.3
-24825.2
-24846.2
-24695.9
-24364.6
-23844.5
-23130
-22218
-21108.4
-19803.6
-18309.5
-16634.9
-14791.9
-12795.6
-10664.1
-8417.9
-6079.98
-3675.16
-1229.61
-309.883
-931.825
-1560.28
-2199.57
-2853.93
-3527.53
-4224.33
-4948.07
-5702.11
-6489.39
-7312.25
-8172.39
-9070.69
-10007.2
-10980.8
-11989.7
-13030.5
-14098.8
-15189.1
-16294.5
-17406.7
-18516.3
-19612.7
-20684
-21717.5
-22699.2
-23614.6
-24448.3
-25184.9
-25808.3
-26302.9
-26653.3
-26845
-26864.2
-26698.7
-26338.1
-25773.9
-25000.2
-24013.4
-22813.4
-21402.9
-19787.9
-17978.2
-15986.6
-13829.3
-11525.7
-9098.21
-6571.45
-3972.28
-1329.02
-337.666
-1015.15
-1699.07
-2393.75
-3103.48
-3832.49
-4584.9
-5364.62
-6175.23
-7019.87
-7901.1
-8820.78
-9779.95
-10778.7
-11816.1
-12890
-13997.1
-15132.9
-16291.3
-17465.2
-18645.8
-19823.2
-20986.2
-22122.2
-23217.6
-24257.8
-25227.1
-26109.6
-26888.6
-27547.2
-28068.9
-28437.3
-28636.9
-28653.2
-28473.3
-28085.9
-27482.2
-26655.5
-25602.5
-24322.5
-22818.5
-21096.9
-19167.8
-17044.8
-14745.2
-12289.5
-9701.44
-7007.34
-4235.85
-1417.22
-365.32
-1097.99
-1836.76
-2585.77
-3349.23
-4131.37
-4936.39
-5768.34
-6631.01
-7527.75
-8461.34
-9433.85
-10446.5
-11499.5
-12591.9
-13721.7
-14885.5
-16078.6
-17294.7
-18526.4
-19764.6
-20998.9
-22217.5
-23407.4
-24554.3
-25642.9
-26656.8
-27579.3
-28392.9
-29080.1
-29623.3
-30005.5
-30210.4
-30222.8
-30029.1
-29617.4
-28978.5
-28105.4
-26994.2
-25644.4
-24059
-22244.4
-20211.2
-17973.6
-15549.6
-12960.7
-10231.8
-7390.8
-4467.8
-1494.86
-393.493
-1182.26
-1976.44
-2779.8
-3596.31
-4430.1
-5285.4
-6166.41
-7077.11
-8021.11
-9001.44
-10020.4
-11079.5
-12179
-13318.3
-14495.2
-15706.3
-16947
-18210.8
-19489.9
-20775.3
-22055.9
-23319.8
-24553.2
-25741.6
-26869
-27918.5
-28872.7
-29713.5
-30422.7
-30982.2
-31374.2
-31581.9
-31589.4
-31382.6
-30949.2
-30279.3
-29365.7
-28204.4
-26794.4
-25138.8
-23244.2
-21121.3
-18784.6
-16252.8
-13548.2
-10696.6
-7727.12
-4671.36
-1563.01
-423.065
-1270.57
-2122.31
-2981.45
-3851.54
-4736.53
-5640.66
-6568.27
-7523.6
-8510.56
-9532.53
-10592.1
-11691.1
-12830
-14008.3
-15224
-16473.8
-17752.9
-19055
-20372.1
-21694.7
-23011.9
-24311.1
-25578.6
-26799
-27956.3
-29033
-30011.1
-30872.2
-31597.6
-32168.4
-32566.6
-32774.8
-32776.5
-32557.3
-32104.4
-31407.6
-30459.2
-29255
-27793.9
-26078.6
-24115.8
-21916.1
-19494.4
-16869.6
-14064.6
-11105.9
-8023.81
-4851.16
-1623.25
-455.231
-1366.42
-2280
-3198.18
-4123.94
-5060.94
-6013.45
-6986.04
-7983.3
-9009.58
-10068.7
-11163.6
-12296.5
-13468.2
-14678.5
-15925.5
-17206
-18515.4
-19847.1
-21193.3
-22544.3
-23889
-25214.7
-26507.4
-27751.5
-28930.5
-30026.7
-31021.8
-31897
-32633.1
-33211
-33612.1
-33818.7
-33814
-33583.1
-33112.9
-32392.8
-31414.8
-30174.3
-28670.1
-26904.4
-24883.9
-22619
-20124.4
-17419.1
-14526.3
-11473.2
-8290.82
-5013.32
-1677.64
-491.639
-1474.63
-2457.15
-3440.03
-4425.41
-5416.7
-6418.28
-7435.13
-8472.4
-9535.02
-10627.4
-11753.1
-12914.6
-14113.3
-15349.2
-16620.8
-17925
-19257.1
-20610.9
-21978.4
-23349.9
-24714.3
-26058.6
-27368.8
-28629
-29822.6
-30931.7
-31937.7
-32821.5
-33563.6
-34144.8
-34546.1
-34749.4
-34737.8
-34495.9
-34010.4
-33270.3
-32267.4
-30996.6
-29456.2
-27648.4
-25579.1
-23258.5
-20700.9
-17925.1
-14954.1
-11815.5
-8540.87
-5165.75
-1728.87
-534.634
-1602
-2664.41
-3720.69
-4771.97
-5821.49
-6874.03
-7935.32
-9011.37
-10108
-11230.4
-12382.8
-13568.5
-14789.1
-16045.2
-17335.5
-18657.2
-20005.8
-21375.1
-22757.1
-24142.4
-25519.7
-26876
-28197
-29467.1
-30669.3
-31785.7
-32797.4
-33685.2
-34429.5
-35010.8
-35410
-35608.7
-35589.9
-35337.8
-34838.8
-34081.7
-33057.9
-31761.9
-30191.5
-28348.3
-26237.7
-23869.1
-21256.1
-18416.8
-15373.7
-12154.2
-8790.27
-5318.67
-1780.42
-587.711
-1758.55
-2917.16
-4059.53
-5185.71
-6299.17
-7405.71
-8512.38
-9626.57
-10755.4
-11905.1
-13080.9
-14286.8
-15525.1
-16796.7
-18100.8
-19434.9
-20794.6
-22174
-23565.2
-24958.7
-26343.2
-27706
-29032.7
-30307.5
-31513.4
-32632.5
-33645.8
-34534.1
-35277.5
-35856.5
-36251.9
-36445.2
-36418.9
-36157.4
-35646.7
-34875.2
-33834
-32517.1
-30921.8
-29048.9
-26902.8
-24492.1
-21829
-18930.5
-15817.7
-12517
-9060.36
-5485.72
-1837.02
-656.408
-1959.85
-3238.7
-4485.03
-5698.23
-6883.09
-8047.56
-9201.04
-10353.1
-11512.5
-12687.2
-13883.6
-15106.4
-16358.7
-17642.1
-18956
-20298.3
-21665
-23050.1
-24446.1
-25843.5
-27231.1
-28596.2
-29924.4
-31199.9
-32405.9
-33524.3
-34536.2
-35422.2
-36162.6
-36737.6
-37128.1
-37315.3
-37281.9
-37011.8
-36491
-35707.4
-34651.8
-33317.6
-31701.6
-29803.4
-27626.6
-25178
-22468.2
-19511.9
-16328
-12940.7
-9380.54
-5686.19
-1905.43
-750.239
-2231.9
-3666.43
-5041.25
-6356.89
-7621.88
-8848.55
-10050.2
-11239.6
-12428.3
-13625.8
-14840.1
-16077
-17340.4
-18632.4
-19953.1
-21300.5
-22670.8
-24058.6
-25456.2
-26854.3
-28241.9
-29606.2
-30933.1
-32206.7
-33410.2
-34525.6
-35534
-36416
-37152
-37722.1
-38107.1
-38288.2
-38248.1
-37970.4
-37440.8
-36647.2
-35579.8
-34231.4
-32598
-30678.4
-28474.4
-25991.1
-23236.5
-20221.9
-16962.3
-13477.5
-9794.14
-5949.65
-1996.38
-887.33
-2621.7
-4264.48
-5800.3
-7236.44
-8590.48
-9882.85
-11133.2
-12358.9
-13574.8
-14792.9
-16022.6
-17271.1
-18543.2
-19841.5
-21166.5
-22516.7
-23888.6
-25276.7
-26673.8
-28070.7
-29456.3
-30818.1
-32141.8
-33411.9
-34611.5
-35722.6
-36726.5
-37603.7
-38334.5
-38899.4
-39278.9
-39454.3
-39408
-39123.7
-38586.9
-37785.1
-36708.1
-35348.2
-33700.5
-31762.6
-29534.6
-27019.2
-24221.1
-21146.9
-17805.1
-14207.2
-10370.8
-6326.48
-2129.12
-1107.3
-3222.74
-5151.29
-6888.3
-8463.14
-9912.86
-11271.9
-12569.4
-13828.9
-15069.3
-16305.1
-17547.9
-18805.7
-20084.3
-21387
-22714.6
-24066.1
-25438.1
-26825.5
-28220.9
-29615.4
-30998.2
-32356.6
-33676.5
-34942.5
-36137.7
-37244.2
-38243.2
-39115.6
-39841.5
-40401.3
-40775.8
-40946.1
-40894.5
-40604.8
-40062.2
-39253.9
-38169.4
-36800.4
-35141
-33187.8
-30939
-28394.6
-25555.1
-22421
-18991
-15262.8
-11234.1
-6913.2
-2344.29
-1513.3
-4241.96
-6564.36
-8544.07
-10269.4
-11814.7
-13236.3
-14576
-15864.6
-17125.4
-18375.7
-19628.6
-20893.5
-22176.9
-23482.5
-24811.7
-26163.5
-27535
-28921
-30314.5
-31706.5
-33086.3
-34441.3
-35757.6
-37019.7
-38210.8
-39313.1
-40307.9
-41176
-41897.6
-42453.3
-42823.5
-42989.7
-42934
-42640.1
-42093.1
-41280
-40189.8
-38814
-37145.7
-35180.4
-32914.6
-30345.5
-27469.2
-24278.6
-20760
-16888.8
-12625.5
-7919.31
-2745.89
-2434.48
-6189.49
-9024.8
-11266.9
-13134.5
-14762.3
-16234.5
-17606.7
-18917.1
-20192.6
-21453.2
-22713.2
-23982.9
-25269.4
-26576.8
-27906.8
-29258.6
-30629.4
-32014.2
-33406
-34796
-36173.3
-37525.8
-38839.3
-40098.4
-41286.4
-42385.6
-43377.2
-44242.1
-44960.7
-45513.2
-45880.5
-46043.8
-45985.3
-45688.5
-45138.5
-44322.2
-43228.3
-41847.8
-40173.4
-38199.6
-35921.6
-33334.1
-30429.3
-27192.7
-23597
-19589.2
-15069.7
-9856.94
-3663.76
-5156.6
-10445.3
-13793.7
-16240
-18202.7
-19880.4
-21381.7
-22771.9
-24093.9
-25377.3
-26643.2
-27906.8
-29179
-30467
-31775.3
-33105.6
-34457.3
-35827.7
-37211.8
-38602.6
-39991.4
-41367.5
-42718.5
-44030.5
-45288
-46474.4
-47571.9
-48561.8
-49425
-50141.9
-50692.9
-51058.7
-51220.5
-51160.5
-50862.3
-50310.8
-49492.8
-48397.1
-47014.2
-45336.8
-43358.6
-41074.1
-38476.7
-35556
-32293
-28650
-24550.3
-19829.9
-14107.5
-6384.1
2440.1
6205.48
9049.98
11300.2
13175.1
14809.4
16287.6
17665.3
18980.6
20260.7
21525.5
22789.4
24062.7
25352.5
26663.1
27996
29350.6
30724
32111.2
33505.3
34897.3
36276.7
37630.9
38946
40206.5
41395.8
42495.9
43488.2
44353.5
45072.2
45624.5
45991.3
46153.6
46093.8
45795.2
45243
44423.9
43326.8
41942.6
40263.9
38285.1
36001.5
33407.8
30496
27251.8
23647.6
19630.5
15100.6
9876.43
3670.55
1760.42
4836.27
7364.41
9463.11
11259.5
12849.7
14301.4
15662.2
16966.3
18238.9
19498.5
20758.8
22029.8
23318.1
24627.8
25960.4
27315.1
28688.9
30076.9
31471.9
32865.1
34245.8
35601.4
36918.1
38180.2
39371.1
40472.9
41466.9
42333.9
43054.2
43608.1
43976.4
44140.2
44081.9
43784.7
43234
42416.5
41321.3
39939.3
38263.6
36289
34011.6
31427.2
28530.2
25310
21747.1
17805.4
13423.8
8512.54
2992.65
1306.08
3749.07
5906.55
7794.66
9468.7
10984.8
12389.7
13719.7
15003.1
16261.4
17511
18764.5
20030.7
21316
22624
23955.8
25310.6
26685.1
28074.3
29471
30866.3
32249.3
33607.6
34927
36192.1
37386.1
38491
39488.2
40358.4
41081.8
41638.8
42010.1
42176.8
42121.2
41827
41279.2
40464.9
39373.3
37995.8
36326
34359.7
32094
29527
26656.6
23478.6
19984.5
16159.4
11982.3
7435.25
2541.64
1029.06
3017.02
4858.28
6539.62
8079.93
9508.48
10854.8
12144.8
13400.2
14638.8
15874.3
17117.8
18377.1
19657.8
20962.8
22293.2
23647.6
25022.7
26413.2
27811.9
29209.7
30595.7
31957.3
33280.4
34549.4
35747.5
36856.6
37858.1
38732.5
39460.2
40021.5
40396.9
40567.7
40516.3
40226.2
39682.8
38873.3
37787.2
36416.5
34755.4
32800.7
30551.3
28007.9
25172.3
22046.6
18633.1
14934.2
10955.7
6716.35
2269.02
852.487
2525.07
4120.54
5622.98
7036.67
8376.12
9659.33
10904.2
12127.1
13341.9
14560.1
15790.8
17041
18315.2
19615.9
20943.6
22296.8
23671.8
25063.1
26463.5
27863.6
29252.5
30617.6
31944.5
33217.6
34420.1
35533.9
36540.1
37419.5
38152.1
38718.4
39098.8
39274.8
39228.5
38943.9
38406.2
37603.1
36524.5
35162.7
33513
31573.2
29343.9
26828.3
24032
20962.6
17630.7
14050
10241.6
6238.74
2097.26
732.836
2182.31
3590.42
4945.26
6246.65
7501.98
8722.45
9920.45
11108.1
12296.3
13494.3
14709.9
15948.6
17214.2
18508.8
19832.2
21182.6
22556.1
23947.1
25347.9
26749.4
28140.3
29507.9
30837.9
32114.6
33321
34439
35449.8
36334
37071.7
37643.2
38029.2
38210.9
38170.8
37892.7
37362.2
36567.3
35498.1
34147.7
32512.1
30590.2
28384.2
25899.6
23144.9
20132.2
16877.5
13401.7
9732.83
5908.98
1981.97
647.086
1932.92
3196.69
4431.11
5635.49
6814.23
7974.78
9126.06
10277.2
11436.8
12612.4
13810.3
15035
16289.7
17575.7
18892.4
20237.7
21607.5
22995.9
24395.2
25795.9
27186.8
28555.1
29886.5
31165.2
32374
33495.1
34509.4
35397.5
36139.7
36716.2
37107.6
37295.4
37262.1
36991.6
36469.8
35684.8
34627.3
33290.9
31672.3
29771.5
27592.1
25141.3
22430
19473.3
16290.7
12907
9353.27
5668.19
1899.11
582.55
1743.53
2893.52
4028.9
5149.83
6259.65
7363.97
8469.58
9583.66
10713.1
11864
13041.6
14249.6
15490.3
16764.6
18071.5
19408.6
20771.5
22154.1
23548.6
24945.4
26333.3
27699.3
29029.2
30307
31515.8
32637.6
33653.3
34543.7
35288.9
35869.4
36265.8
36459.5
36433.4
36171.4
35659.7
34886.8
33843.6
32524.4
30926.3
29050.4
26901.3
24487.5
21821.8
18921.2
15807.3
12506.6
9051.44
5479.64
1834.85
531.786
1593.69
2651.28
3703.64
4752.02
5799.62
6851.16
7912.25
8988.77
10086.4
11210.3
12364.7
13552.5
14775.7
16034.4
17327.6
18652.3
20004
21376.5
22761.9
24150.5
25531
26890.6
28214.8
29488
30693
31812.1
32826.2
33716.1
34462.2
35044.9
35445.1
35644.4
35625.5
35373
34873
34114.4
33088.6
31790.1
30216.8
28370.4
26256.3
23884.1
21267.6
18425.1
15379.2
12157.4
8791.8
5319.26
1780.56
490.145
1470.28
2450.3
3431.2
4415.21
5405.77
6407.22
7424.49
8462.67
9526.63
10620.7
11748.4
12912.2
14113.5
15352.1
16626.5
17933.7
19269
20626
21996.7
23371.5
24739.1
26086.7
27400
28663.3
29859.8
30971.5
31979.9
32865.8
33609.7
34192.2
34594.5
34798.3
34786.8
34544.4
34057.9
33316.3
32311.3
31037.9
29494.6
27683.3
25610.3
23285.7
20724
17944
14969.1
11826.7
8548.56
5170.22
1730.33
454.558
1364.48
2277
3194.44
4119.84
5056.9
6009.89
6983.34
7981.84
9009.67
10070.6
11167.7
12302.9
13477.2
14690.1
15940
17223.5
18535.9
19870.8
21220.2
22574.5
23922.4
25251.3
26547.1
27794.2
28976
30074.8
31072.3
31949.6
32687.4
33266.7
33668.8
33875.8
33871.2
33639.8
33168.6
32446.9
31466.9
30223.8
28716.5
26947.3
24922.8
22653.6
20154.5
17444.6
14547.1
11489.3
8302.17
5020.09
1679.89
422.898
1270.12
2121.7
2980.89
3851.29
4736.87
5641.88
6570.66
7527.43
8516.09
9540
10601.8
11703
12844.5
14025.4
15244
16496.8
17778.9
19084.1
20404.3
21730.1
23050.4
24352.8
25623.3
26846.7
28006.7
29085.9
30066.4
30929.6
31656.6
32228.9
32628
32836.6
32838.4
32618.7
32164.8
31466.4
30516
29309.2
27844.9
26126
24159.2
21955.1
19528.7
16898.9
14088.7
11124.8
8037.28
4859.25
1625.95
393.639
1182.73
1977.32
2781.23
3598.46
4433.18
5289.62
6171.99
7084.26
8030.03
9012.34
10033.5
11094.9
12196.9
13338.8
14518.4
15732.5
16976
18242.9
19525.1
20813.5
22097.3
23364.1
24600.6
25791.8
26921.8
27973.9
28930.3
29773.2
30484.1
31044.8
31437.8
31645.9
31653.5
31446.2
31011.8
30340.4
29424.7
28260.8
26847.8
25188.6
23289.9
21162.5
18821
16284.1
13574.1
10716.9
7741.69
4680.14
1565.94
365.655
1099.01
1838.54
2588.4
3352.84
4136.11
4942.42
5775.83
6640.13
7538.67
8474.23
9448.88
10463.8
11519.2
12614.2
13746.7
14913.2
16109.1
17328.2
18562.8
19804
21041.3
22262.8
23455.6
24605.2
25696.4
26712.8
27637.4
28453
29141.7
29686.2
30069.3
30274.7
30287.1
30092.9
29680.3
29039.9
28164.8
27051.1
25698.2
24109.2
22290.7
20253.1
18010.7
15581.5
12987.2
10252.7
7405.79
4476.83
1497.88
338.108
1016.49
1701.36
2397.06
3107.9
3838.14
4591.91
5373.13
6185.38
7031.8
7914.95
8836.7
9798.07
10799.1
11839
12915.4
14025.2
15163.7
16324.9
17501.6
18685.1
19865.3
21031.1
22169.9
23267.9
24310.5
25282.2
26166.7
26947.5
27607.7
28130.6
28499.9
28699.9
28716.2
28535.9
28147.6
27542.4
26713.8
25658.3
24375.4
22868
21142.5
19209.1
17081.4
14776.8
12315.8
9722.09
7022.23
4244.83
1420.23
310.377
933.318
1562.81
2203.19
2858.72
3533.58
4231.74
4956.96
5712.6
6501.6
7326.31
8188.41
9088.81
10027.5
11003.5
12014.7
13058
14129
15221.9
16329.9
17444.8
18557.1
19656.1
20730
21765.9
22750
23667.5
24503.3
25241.5
25866.4
26362.2
26713.4
26905.5
26924.7
26758.8
26397.3
25831.8
25056.1
24067.1
22864.3
21450.5
19831.9
18018
16021.9
13859.8
11551.1
9118.18
6585.85
3980.97
1331.93
282.014
848.176
1420.73
2003.87
2601.72
3218.28
3857.31
4522.32
5216.48
5942.48
6702.49
7498.02
8329.85
9197.92
10101.3
11038
12004.9
12998
14012.1
15040.5
16075.7
17108.8
18130
19128.2
20091.3
21006.6
21860.4
22638.4
23326.2
23908.8
24371.8
24700.8
24882.1
24903.1
24752.4
24420.3
23898.9
23182.7
22268.6
21156.3
19848.4
18350.9
16672.4
14825.2
12824.4
10688
8436.76
6093.59
3683.37
1232.36
252.714
760.162
1273.65
1797.15
2334.52
2889.48
3465.55
4065.97
4693.62
5350.97
6039.97
6761.98
7517.68
8306.99
9128.97
9981.81
10862.7
11767.9
12692.4
13630.5
14575
15518
16450.3
17361.8
18241.7
19078.1
19858.6
20570.1
21199.4
21733.1
22157.6
22460.1
22627.9
22649.6
22514.8
22214.6
21741.8
21091.4
20260.6
19249.3
18059.7
16697.4
15170.3
13489.5
11668.9
9724.96
7676.49
5544.43
3351.41
1121.29
222.297
668.743
1120.73
1581.89
2055.74
2545.68
3054.87
3586.25
4142.41
4725.54
5337.39
5979.14
6651.39
7354.03
8086.21
8846.28
9631.73
10439.1
11264.1
12101.4
12944.7
13786.9
14619.7
15434.2
16220.6
16968.3
17666.3
18302.9
18866.2
19344.2
19724.9
19996.6
20148.4
20169.7
20051.4
19785.4
19365.6
18787.3
18048
17147.7
16088.4
14875
13514.7
12017.4
10395.6
8663.73
6838.79
4939.38
2985.67
998.92
190.689
573.708
961.636
1357.68
1764.96
2186.45
2624.95
3083.01
3562.9
4066.53
4595.41
5150.56
5732.48
6341.07
6975.56
7634.52
8315.73
9016.22
9732.18
10459
11191.2
11922.6
12646.1
13353.7
14037.1
14687.1
15293.9
15847.6
16337.8
16753.9
17085.7
17323
17456.1
17476
17374.8
17145.5
16782.6
16282.1
15642.1
14862.2
13944.4
12893
11714.1
10416.4
9010.64
7509.55
5927.73
4281.36
2587.92
865.845
157.91
475.124
796.503
1124.77
1462.56
1812.4
2176.64
2557.43
2956.68
3375.98
3816.6
4279.4
4764.76
5272.61
5802.3
6352.6
6921.67
7507
8105.4
8713.02
9325.28
9936.92
10542
11134.1
11705.9
12249.9
12757.8
13221.5
13632
13980.8
14259
14458.3
14570.6
14588.2
14504.6
14313.9
14011.6
13594.3
13060.4
12409.5
11643.5
10765.7
9781.46
8697.96
7524.16
6270.73
4949.87
3575.1
2161.01
723.014
124.06
373.297
625.866
883.946
1149.64
1424.97
1711.8
2011.85
2326.63
2657.42
3005.19
3370.64
3754.07