/*--------------------------------*- C++ -*----------------------------------*\
| =========                 |                                                 |
| \\      /  F ield         | OpenFOAM: The Open Source CFD Toolbox           |
|  \\    /   O peration     | Version:  5.x                                   |
|   \\  /    A nd           | Web:      www.OpenFOAM.org                      |
|    \\/     M anipulation  |                                                 |
\*---------------------------------------------------------------------------*/
FoamFile
{
    version     2.0;
    format      ascii;
    class       volScalarField;
    location    "0.6";
    object      gradTz;
}
// * * * * * * * * * * * * * * * * * * * * * * * * * * * * * * * * * * * * * //

dimensions      [0 -1 0 1 0 0 0];

internalField   nonuniform List<scalar> 
25000
(
-6334.16
-6851.17
-7000.91
-7053.8
-7075.73
-7085.81
-7090.61
-7092.78
-7093.51
-7093.39
-7092.73
-7091.73
-7090.48
-7089.06
-7087.51
-7085.85
-7084.13
-7082.34
-7080.51
-7078.66
-7076.8
-7074.95
-7073.13
-7071.37
-7069.67
-7068.07
-7066.59
-7065.25
-7064.08
-7063.11
-7062.35
-7061.84
-7061.58
-7061.61
-7061.92
-7062.52
-7063.41
-7064.58
-7065.98
-7067.54
-7069.16
-7070.63
-7071.63
-7071.52
-7069.09
-7061.66
-7042.61
-6992.78
-6846.24
-6332.51
-6851.18
-7841.67
-8185.82
-8321.71
-8381.58
-8409.96
-8423.69
-8429.91
-8431.95
-8431.5
-8429.5
-8426.47
-8422.71
-8418.44
-8413.78
-8408.82
-8403.63
-8398.27
-8392.78
-8387.22
-8381.65
-8376.1
-8370.64
-8365.34
-8360.25
-8355.45
-8351
-8346.99
-8343.49
-8340.56
-8338.3
-8336.75
-8335.98
-8336.05
-8336.98
-8338.8
-8341.48
-8344.99
-8349.19
-8353.91
-8358.8
-8363.3
-8366.42
-8366.4
-8359.79
-8339.36
-8288.12
-8161.43
-7826.87
-6846.22
-7000.94
-8185.87
-8634.3
-8823.84
-8911.43
-8954.19
-8975.19
-8984.69
-8987.66
-8986.7
-8983.24
-8978.11
-8971.82
-8964.67
-8956.88
-8948.61
-8939.95
-8931
-8921.86
-8912.59
-8903.28
-8894.03
-8884.93
-8876.09
-8867.6
-8859.59
-8852.18
-8845.48
-8839.63
-8834.76
-8830.97
-8828.38
-8827.11
-8827.21
-8828.77
-8831.81
-8836.3
-8842.16
-8849.21
-8857.15
-8865.42
-8873.15
-8878.78
-8879.61
-8870.5
-8840.99
-8767.81
-8593.6
-8161.18
-6992.66
-7053.86
-8321.86
-8823.99
-9045.56
-9151.53
-9204.49
-9230.78
-9242.57
-9245.96
-9244.21
-9239.13
-9231.82
-9222.92
-9212.87
-9201.94
-9190.33
-9178.19
-9165.65
-9152.83
-9139.85
-9126.81
-9113.85
-9101.09
-9088.69
-9076.8
-9065.57
-9055.17
-9045.79
-9037.59
-9030.75
-9025.44
-9021.81
-9020.01
-9020.16
-9022.35
-9026.61
-9032.92
-9041.17
-9051.13
-9062.38
-9074.2
-9085.44
-9094.11
-9096.79
-9087.17
-9052.79
-8967.02
-8766.95
-8287.25
-7042.26
-7075.86
-8381.95
-8911.9
-9151.91
-9269.32
-9328.91
-9358.61
-9371.7
-9374.96
-9372.09
-9365.21
-9355.61
-9344.05
-9331.05
-9316.94
-9301.98
-9286.35
-9270.21
-9253.71
-9236.99
-9220.21
-9203.53
-9187.11
-9171.15
-9155.83
-9141.38
-9127.99
-9115.9
-9105.34
-9096.53
-9089.68
-9085
-9082.68
-9082.87
-9085.69
-9091.18
-9099.34
-9110.02
-9122.94
-9137.61
-9153.18
-9168.25
-9180.53
-9186.09
-9177.83
-9142.18
-9050.77
-8838.44
-8337.38
-7060.92
-7086.05
-8410.65
-8955.17
-9205.52
-9329.65
-9393.14
-9424.71
-9438.19
-9440.79
-9436.49
-9427.64
-9415.63
-9401.34
-9385.35
-9368.05
-9349.72
-9330.58
-9310.83
-9290.64
-9270.19
-9249.65
-9229.24
-9209.15
-9189.61
-9170.86
-9153.17
-9136.78
-9121.98
-9109.04
-9098.24
-9089.85
-9084.11
-9081.26
-9081.49
-9084.94
-9091.68
-9101.69
-9114.84
-9130.8
-9149.01
-9168.5
-9187.73
-9204.16
-9213.5
-9208.19
-9173.99
-9081.71
-8865.25
-8356.09
-7067.76
-7091.02
-8424.86
-8976.93
-9232.81
-9360.53
-9425.99
-9458.22
-9471.35
-9472.83
-9466.84
-9455.84
-9441.32
-9424.24
-9405.22
-9384.7
-9362.99
-9340.34
-9316.97
-9293.09
-9268.89
-9244.6
-9220.45
-9196.68
-9173.56
-9151.38
-9130.43
-9111.03
-9093.51
-9078.19
-9065.39
-9055.45
-9048.64
-9045.26
-9045.51
-9049.59
-9057.58
-9069.48
-9085.13
-9104.19
-9126.04
-9149.63
-9173.3
-9194.34
-9208.22
-9207.07
-9176.28
-9086.25
-8870.49
-8360.27
-7069.37
-7093.41
-8431.72
-8987.48
-9246.01
-9375.32
-9441.38
-9473.38
-9485.59
-9485.6
-9477.68
-9464.39
-9447.28
-9427.35
-9405.28
-9381.52
-9356.43
-9330.26
-9303.28
-9275.7
-9247.77
-9219.72
-9191.83
-9164.39
-9137.69
-9112.06
-9087.86
-9065.45
-9045.2
-9027.48
-9012.69
-9001.18
-8993.3
-8989.37
-8989.65
-8994.36
-9003.6
-9017.39
-9035.57
-9057.78
-9083.36
-9111.2
-9139.54
-9165.55
-9184.54
-9188.45
-9162.44
-9076.68
-8864.49
-8357.1
-7068.4
-7094.42
-8434.6
-8991.83
-9251.27
-9380.87
-9446.62
-9477.76
-9488.63
-9486.88
-9476.86
-9461.16
-9441.4
-9418.6
-9393.46
-9366.46
-9337.98
-9308.31
-9277.72
-9246.47
-9214.81
-9183.02
-9151.41
-9120.3
-9090.02
-9060.97
-9033.52
-9008.09
-8985.11
-8965.01
-8948.21
-8935.13
-8926.17
-8921.69
-8921.99
-8927.32
-8937.82
-8953.5
-8974.23
-8999.62
-9028.98
-9061.17
-9094.36
-9125.61
-9150.13
-9159.73
-9139.4
-9059.2
-8852.33
-8349.96
-7066.05
-7094.65
-8435.22
-8992.62
-9251.89
-9380.96
-9445.79
-9475.63
-9484.86
-9481.16
-9468.92
-9450.75
-9428.29
-9402.6
-9374.39
-9344.17
-9312.33
-9279.18
-9245.01
-9210.1
-9174.74
-9139.24
-9103.93
-9069.17
-9035.34
-9002.87
-8972.19
-8943.77
-8918.07
-8895.58
-8876.78
-8862.14
-8852.1
-8847.06
-8847.37
-8853.32
-8865.06
-8882.63
-8905.9
-8934.48
-8967.67
-9004.27
-9042.41
-9079.08
-9109.41
-9125.1
-9111.05
-9037.2
-8836.68
-8340.61
-7062.94
-7094.44
-8434.53
-8991.31
-9249.78
-9377.78
-9441.3
-9469.56
-9476.96
-9471.18
-9456.63
-9435.95
-9410.79
-9382.22
-9350.96
-9317.55
-9282.38
-9245.78
-9208.08
-9169.56
-9130.54
-9091.37
-9052.4
-9014.04
-8976.7
-8940.85
-8906.97
-8875.58
-8847.19
-8822.33
-8801.55
-8785.35
-8774.22
-8768.62
-8768.94
-8775.48
-8788.45
-8807.9
-8833.69
-8865.46
-8902.46
-8943.5
-8986.63
-9028.82
-9065.12
-9087.13
-9079.7
-9012.67
-8819.1
-8330.04
-7059.41
-7093.96
-8433.06
-8988.77
-9246.04
-9372.67
-9434.63
-9461.14
-9466.59
-9458.67
-9441.79
-9418.59
-9390.74
-9359.31
-9325.06
-9288.5
-9250.06
-9210.08
-9168.9
-9126.84
-9084.23
-9041.45
-8998.88
-8956.97
-8916.18
-8877
-8839.97
-8805.65
-8774.61
-8747.42
-8724.67
-8706.93
-8694.73
-8688.58
-8688.89
-8696.02
-8710.18
-8731.47
-8759.76
-8794.66
-8835.45
-8880.89
-8929.02
-8976.74
-9019.05
-9047.5
-9046.84
-8986.86
-8800.53
-8318.85
-7055.67
-7093.33
-8431.16
-8985.54
-9241.38
-9366.47
-9426.74
-9451.41
-9454.85
-9444.77
-9425.56
-9399.88
-9369.38
-9335.17
-9297.97
-9258.35
-9216.71
-9173.44
-9128.86
-9083.34
-9037.23
-8990.92
-8944.84
-8899.47
-8855.3
-8812.87
-8772.77
-8735.58
-8701.94
-8672.46
-8647.79
-8628.54
-8615.28
-8608.57
-8608.87
-8616.56
-8631.9
-8654.98
-8685.7
-8723.68
-8768.19
-8817.96
-8871.02
-8924.21
-8972.49
-9007.36
-9013.5
-8960.61
-8781.61
-8307.44
-7051.86
-7092.63
-8429.04
-8981.96
-9236.26
-9359.72
-9418.25
-9441.05
-9442.5
-9430.27
-9408.78
-9380.67
-9347.61
-9310.68
-9270.64
-9228.04
-9183.32
-9136.85
-9089
-9040.12
-8990.62
-8940.9
-8891.42
-8842.69
-8795.25
-8749.67
-8706.57
-8666.61
-8630.44
-8598.75
-8572.21
-8551.48
-8537.19
-8529.94
-8530.21
-8538.44
-8554.9
-8579.72
-8612.8
-8653.77
-8701.88
-8755.88
-8813.74
-8872.28
-8926.42
-8967.59
-8980.42
-8934.55
-8762.82
-8296.09
-7048.06
-7091.9
-8426.84
-8978.25
-9230.98
-9352.8
-9409.6
-9430.56
-9430.05
-9415.75
-9392.05
-9361.6
-9326.06
-9286.53
-9243.76
-9198.31
-9150.63
-9101.1
-9050.1
-8998.02
-8945.26
-8892.26
-8839.53
-8787.58
-8736.99
-8688.39
-8642.42
-8599.79
-8561.19
-8527.36
-8499.02
-8476.87
-8461.59
-8453.8
-8454.05
-8462.78
-8480.32
-8506.79
-8542.13
-8585.97
-8637.56
-8695.61
-8758.1
-8821.81
-8881.6
-8928.88
-8948.2
-8909.15
-8744.49
-8285.01
-7044.36
-7091.18
-8424.65
-8974.57
-9225.76
-9345.98
-9401.09
-9420.28
-9417.89
-9401.6
-9375.79
-9343.12
-9305.24
-9263.24
-9217.88
-9169.73
-9119.24
-9066.81
-9012.83
-8957.71
-8901.86
-8845.77
-8789.94
-8734.93
-8681.36
-8629.88
-8581.2
-8536.02
-8495.12
-8459.26
-8429.2
-8405.7
-8389.46
-8381.16
-8381.37
-8390.58
-8409.13
-8437.18
-8474.66
-8521.22
-8576.1
-8638.01
-8704.9
-8773.53
-8838.72
-8891.82
-8917.34
-8884.81
-8726.92
-8274.4
-7040.81
-7090.48
-8422.55
-8971.03
-9220.76
-9339.44
-9392.96
-9410.47
-9406.31
-9388.15
-9360.37
-9325.61
-9285.53
-9241.23
-9193.45
-9142.78
-9089.66
-9034.52
-8977.75
-8919.78
-8861.05
-8802.05
-8743.32
-8685.46
-8629.09
-8574.93
-8523.68
-8476.13
-8433.07
-8395.3
-8363.63
-8338.85
-8321.72
-8312.93
-8313.11
-8322.76
-8342.24
-8371.76
-8411.24
-8460.34
-8518.3
-8583.83
-8654.85
-8728.1
-8798.35
-8856.93
-8888.28
-8861.88
-8710.37
-8264.4
-7037.46
-7089.82
-8420.58
-8967.73
-9216.08
-9333.35
-9385.38
-9401.33
-9395.54
-9375.65
-9346.05
-9309.38
-9267.27
-9220.84
-9170.84
-9117.84
-9062.31
-9004.68
-8945.34
-8884.75
-8823.36
-8761.69
-8700.29
-8639.79
-8580.85
-8524.2
-8470.6
-8420.86
-8375.8
-8336.26
-8303.11
-8277.15
-8259.18
-8249.94
-8250.08
-8260.13
-8280.48
-8311.34
-8352.66
-8404.1
-8464.91
-8533.77
-8608.6
-8686.1
-8761.03
-8824.66
-8861.41
-8840.68
-8695.06
-8255.15
-7034.37
-7089.23
-8418.79
-8964.72
-9211.82
-9327.79
-9378.48
-9393.03
-9385.75
-9364.31
-9333.07
-9294.66
-9250.73
-9202.38
-9150.37
-9095.27
-9037.56
-8977.67
-8916.03
-8853.07
-8789.28
-8725.19
-8661.38
-8598.49
-8537.23
-8478.34
-8422.61
-8370.88
-8324.01
-8282.88
-8248.38
-8221.35
-8202.63
-8192.98
-8193.07
-8203.48
-8224.61
-8256.68
-8299.66
-8353.21
-8416.58
-8488.45
-8566.72
-8648.07
-8727.24
-8795.44
-8837.06
-8821.47
-8681.19
-8246.77
-7031.56
-7088.7
-8417.2
-8962.05
-9208.05
-9322.88
-9372.38
-9385.69
-9377.11
-9354.29
-9321.6
-9281.66
-9236.13
-9186.09
-9132.31
-9075.37
-9015.74
-8953.87
-8890.18
-8825.13
-8759.23
-8693
-8627.07
-8562.09
-8498.77
-8437.9
-8380.29
-8326.81
-8278.35
-8235.81
-8200.11
-8172.14
-8152.75
-8142.73
-8142.79
-8153.51
-8175.31
-8208.45
-8252.89
-8308.3
-8373.93
-8448.46
-8529.76
-8614.51
-8697.4
-8769.65
-8815.57
-8804.51
-8668.95
-8239.36
-7029.09
-7088.25
-8415.84
-8959.77
-9204.83
-9318.69
-9367.17
-9379.41
-9369.72
-9345.73
-9311.81
-9270.57
-9223.66
-9172.18
-9116.9
-9058.38
-8997.12
-8933.55
-8868.12
-8801.3
-8733.58
-8665.54
-8597.8
-8531.02
-8465.95
-8403.39
-8344.17
-8289.2
-8239.37
-8195.63
-8158.92
-8130.13
-8110.17
-8099.83
-8099.86
-8110.84
-8133.22
-8167.27
-8212.95
-8269.95
-8337.51
-8414.3
-8498.19
-8585.84
-8671.92
-8747.61
-8797.21
-8790.02
-8658.48
-8233.04
-7026.97
-7087.88
-8414.73
-8957.91
-9202.2
-9315.26
-9362.92
-9374.3
-9363.7
-9338.75
-9303.82
-9261.52
-9213.49
-9160.84
-9104.33
-9044.52
-8981.93
-8916.98
-8850.13
-8781.86
-8712.67
-8643.15
-8573.92
-8505.68
-8439.18
-8375.24
-8314.71
-8258.51
-8207.57
-8162.85
-8125.3
-8095.86
-8075.43
-8064.83
-8064.82
-8076.02
-8098.87
-8133.65
-8180.36
-8238.65
-8307.78
-8386.41
-8472.42
-8562.43
-8651.11
-8729.61
-8782.22
-8778.19
-8649.94
-8227.88
-7025.24
-7087.6
-8413.89
-8956.49
-9200.19
-9312.65
-9359.68
-9370.4
-9359.11
-9333.44
-9297.74
-9254.63
-9205.76
-9152.21
-9094.76
-9033.98
-8970.36
-8904.37
-8836.44
-8767.06
-8696.75
-8626.1
-8555.74
-8486.39
-8418.8
-8353.8
-8292.28
-8235.15
-8183.36
-8137.89
-8099.7
-8069.76
-8048.96
-8038.17
-8038.14
-8049.49
-8072.71
-8108.05
-8155.52
-8214.8
-8285.13
-8365.17
-8452.78
-8544.59
-8635.25
-8715.9
-8770.79
-8769.17
-8643.43
-8223.94
-7023.93
-7087.41
-8413.32
-8955.54
-9198.84
-9310.89
-9357.5
-9367.77
-9356.02
-9329.85
-9293.64
-9249.99
-9200.54
-9146.39
-9088.31
-9026.87
-8962.57
-8895.87
-8827.21
-8757.08
-8686.02
-8614.61
-8543.49
-8473.38
-8405.06
-8339.36
-8277.16
-8219.4
-8167.04
-8121.06
-8082.45
-8052.16
-8031.13
-8020.2
-8020.15
-8031.61
-8055.07
-8090.79
-8138.78
-8198.73
-8269.86
-8350.85
-8439.55
-8532.57
-8624.57
-8706.66
-8763.09
-8763.09
-8639.04
-8221.29
-7023.04
-7087.32
-8413.03
-8955.06
-9198.16
-9310.01
-9356.4
-9366.45
-9354.46
-9328.05
-9291.58
-9247.65
-9197.92
-9143.47
-9085.07
-9023.3
-8958.65
-8891.59
-8822.57
-8752.07
-8680.62
-8608.83
-8537.33
-8466.84
-8398.15
-8332.09
-8269.55
-8211.48
-8158.83
-8112.6
-8073.77
-8043.31
-8022.15
-8011.16
-8011.1
-8022.62
-8046.19
-8082.11
-8130.36
-8190.63
-8262.17
-8343.64
-8432.88
-8526.52
-8619.19
-8702.01
-8759.22
-8760.04
-8636.83
-8219.95
-7022.59
-7087.32
-8413.03
-8955.06
-9198.16
-9310.01
-9356.4
-9366.45
-9354.46
-9328.05
-9291.58
-9247.65
-9197.92
-9143.47
-9085.07
-9023.3
-8958.65
-8891.59
-8822.57
-8752.07
-8680.62
-8608.83
-8537.33
-8466.84
-8398.15
-8332.09
-8269.55
-8211.48
-8158.83
-8112.6
-8073.77
-8043.31
-8022.15
-8011.16
-8011.1
-8022.62
-8046.2
-8082.11
-8130.36
-8190.64
-8262.18
-8343.64
-8432.89
-8526.52
-8619.19
-8702.01
-8759.22
-8760.04
-8636.83
-8219.95
-7022.59
-7087.41
-8413.32
-8955.54
-9198.84
-9310.89
-9357.5
-9367.77
-9356.01
-9329.85
-9293.64
-9249.99
-9200.54
-9146.39
-9088.31
-9026.87
-8962.57
-8895.87
-8827.21
-8757.08
-8686.02
-8614.61
-8543.49
-8473.38
-8405.06
-8339.36
-8277.16
-8219.4
-8167.04
-8121.07
-8082.45
-8052.17
-8031.13
-8020.2
-8020.15
-8031.62
-8055.08
-8090.8
-8138.79
-8198.73
-8269.87
-8350.86
-8439.55
-8532.58
-8624.58
-8706.67
-8763.1
-8763.1
-8639.04
-8221.29
-7023.04
-7087.6
-8413.88
-8956.49
-9200.19
-9312.65
-9359.68
-9370.4
-9359.11
-9333.43
-9297.74
-9254.63
-9205.75
-9152.21
-9094.75
-9033.98
-8970.36
-8904.36
-8836.43
-8767.05
-8696.75
-8626.1
-8555.74
-8486.38
-8418.8
-8353.8
-8292.28
-8235.15
-8183.36
-8137.89
-8099.71
-8069.76
-8048.97
-8038.18
-8038.14
-8049.5
-8072.72
-8108.06
-8155.53
-8214.81
-8285.14
-8365.18
-8452.8
-8544.61
-8635.27
-8715.91
-8770.81
-8769.18
-8643.44
-8223.95
-7023.93
-7087.88
-8414.73
-8957.91
-9202.19
-9315.26
-9362.92
-9374.3
-9363.69
-9338.75
-9303.82
-9261.51
-9213.49
-9160.84
-9104.32
-9044.52
-8981.92
-8916.98
-8850.13
-8781.85
-8712.67
-8643.15
-8573.92
-8505.68
-8439.18
-8375.24
-8314.71
-8258.51
-8207.58
-8162.86
-8125.31
-8095.87
-8075.43
-8064.84
-8064.83
-8076.03
-8098.89
-8133.67
-8180.37
-8238.66
-8307.8
-8386.43
-8472.44
-8562.45
-8651.13
-8729.63
-8782.23
-8778.2
-8649.95
-8227.88
-7025.25
-7088.25
-8415.84
-8959.77
-9204.83
-9318.69
-9367.17
-9379.41
-9369.72
-9345.73
-9311.8
-9270.56
-9223.66
-9172.18
-9116.89
-9058.38
-8997.11
-8933.54
-8868.12
-8801.29
-8733.58
-8665.54
-8597.79
-8531.02
-8465.95
-8403.39
-8344.17
-8289.2
-8239.37
-8195.64
-8158.92
-8130.14
-8110.18
-8099.84
-8099.87
-8110.85
-8133.24
-8167.28
-8212.97
-8269.97
-8337.53
-8414.32
-8498.21
-8585.86
-8671.94
-8747.63
-8797.23
-8790.04
-8658.5
-8233.05
-7026.97
-7088.7
-8417.2
-8962.05
-9208.05
-9322.88
-9372.38
-9385.69
-9377.11
-9354.29
-9321.6
-9281.66
-9236.12
-9186.08
-9132.3
-9075.36
-9015.74
-8953.86
-8890.17
-8825.13
-8759.22
-8693
-8627.07
-8562.08
-8498.77
-8437.9
-8380.29
-8326.81
-8278.35
-8235.82
-8200.12
-8172.15
-8152.76
-8142.74
-8142.8
-8153.52
-8175.33
-8208.47
-8252.91
-8308.33
-8373.96
-8448.49
-8529.79
-8614.54
-8697.43
-8769.67
-8815.6
-8804.53
-8668.96
-8239.37
-7029.09
-7089.23
-8418.79
-8964.72
-9211.82
-9327.79
-9378.48
-9393.03
-9385.75
-9364.31
-9333.07
-9294.65
-9250.72
-9202.37
-9150.36
-9095.27
-9037.56
-8977.67
-8916.02
-8853.06
-8789.27
-8725.18
-8661.37
-8598.49
-8537.23
-8478.33
-8422.61
-8370.88
-8324.01
-8282.89
-8248.38
-8221.36
-8202.64
-8192.99
-8193.09
-8203.5
-8224.63
-8256.7
-8299.68
-8353.24
-8416.61
-8488.48
-8566.75
-8648.11
-8727.27
-8795.47
-8837.09
-8821.49
-8681.21
-8246.78
-7031.57
-7089.82
-8420.58
-8967.73
-9216.08
-9333.34
-9385.38
-9401.33
-9395.53
-9375.65
-9346.05
-9309.37
-9267.27
-9220.84
-9170.84
-9117.84
-9062.31
-9004.67
-8945.34
-8884.75
-8823.36
-8761.68
-8700.29
-8639.78
-8580.85
-8524.2
-8470.6
-8420.86
-8375.8
-8336.27
-8303.11
-8277.16
-8259.2
-8249.96
-8250.1
-8260.15
-8280.5
-8311.36
-8352.69
-8404.13
-8464.94
-8533.8
-8608.63
-8686.13
-8761.07
-8824.7
-8861.44
-8840.7
-8695.08
-8255.16
-7034.37
-7090.48
-8422.55
-8971.03
-9220.76
-9339.44
-9392.96
-9410.47
-9406.31
-9388.15
-9360.37
-9325.61
-9285.53
-9241.22
-9193.45
-9142.77
-9089.66
-9034.51
-8977.75
-8919.78
-8861.04
-8802.05
-8743.32
-8685.45
-8629.09
-8574.92
-8523.68
-8476.13
-8433.07
-8395.3
-8363.64
-8338.86
-8321.73
-8312.94
-8313.12
-8322.78
-8342.27
-8371.78
-8411.27
-8460.37
-8518.34
-8583.87
-8654.89
-8728.13
-8798.39
-8856.96
-8888.32
-8861.91
-8710.39
-8264.41
-7037.47
-7091.18
-8424.65
-8974.57
-9225.76
-9345.98
-9401.09
-9420.28
-9417.89
-9401.6
-9375.79
-9343.12
-9305.23
-9263.23
-9217.88
-9169.73
-9119.24
-9066.81
-9012.83
-8957.7
-8901.86
-8845.76
-8789.93
-8734.93
-8681.36
-8629.88
-8581.2
-8536.03
-8495.13
-8459.27
-8429.21
-8405.71
-8389.47
-8381.18
-8381.39
-8390.61
-8409.16
-8437.21
-8474.69
-8521.25
-8576.13
-8638.05
-8704.94
-8773.57
-8838.76
-8891.86
-8917.38
-8884.84
-8726.94
-8274.42
-7040.81
-7091.9
-8426.84
-8978.25
-9230.98
-9352.8
-9409.6
-9430.56
-9430.05
-9415.74
-9392.04
-9361.59
-9326.06
-9286.53
-9243.76
-9198.31
-9150.62
-9101.09
-9050.09
-8998.01
-8945.25
-8892.26
-8839.52
-8787.57
-8736.99
-8688.38
-8642.42
-8599.79
-8561.2
-8527.37
-8499.03
-8476.88
-8461.6
-8453.82
-8454.07
-8462.81
-8480.34
-8506.82
-8542.17
-8586.01
-8637.59
-8695.65
-8758.14
-8821.85
-8881.64
-8928.92
-8948.23
-8909.18
-8744.51
-8285.03
-7044.36
-7092.63
-8429.04
-8981.96
-9236.26
-9359.72
-9418.25
-9441.05
-9442.49
-9430.27
-9408.78
-9380.67
-9347.6
-9310.68
-9270.64
-9228.04
-9183.31
-9136.84
-9088.99
-9040.11
-8990.61
-8940.89
-8891.42
-8842.69
-8795.24
-8749.67
-8706.57
-8666.61
-8630.45
-8598.75
-8572.22
-8551.49
-8537.21
-8529.95
-8530.23
-8538.46
-8554.93
-8579.75
-8612.83
-8653.8
-8701.92
-8755.92
-8813.78
-8872.32
-8926.46
-8967.63
-8980.45
-8934.58
-8762.84
-8296.1
-7048.07
-7093.33
-8431.16
-8985.54
-9241.38
-9366.47
-9426.74
-9451.41
-9454.85
-9444.77
-9425.56
-9399.87
-9369.38
-9335.16
-9297.97
-9258.34
-9216.71
-9173.43
-9128.86
-9083.33
-9037.22
-8990.91
-8944.84
-8899.46
-8855.29
-8812.87
-8772.76
-8735.58
-8701.94
-8672.47
-8647.8
-8628.55
-8615.3
-8608.59
-8608.89
-8616.58
-8631.92
-8655.01
-8685.73
-8723.72
-8768.22
-8818
-8871.06
-8924.25
-8972.53
-9007.4
-9013.53
-8960.64
-8781.64
-8307.45
-7051.86
-7093.96
-8433.06
-8988.77
-9246.04
-9372.68
-9434.63
-9461.14
-9466.58
-9458.66
-9441.78
-9418.59
-9390.73
-9359.31
-9325.05
-9288.5
-9250.05
-9210.08
-9168.89
-9126.83
-9084.22
-9041.44
-8998.88
-8956.97
-8916.17
-8877
-8839.97
-8805.65
-8774.61
-8747.43
-8724.68
-8706.94
-8694.75
-8688.59
-8688.91
-8696.04
-8710.21
-8731.5
-8759.79
-8794.7
-8835.49
-8880.93
-8929.06
-8976.78
-9019.09
-9047.54
-9046.88
-8986.89
-8800.55
-8318.87
-7055.68
-7094.44
-8434.53
-8991.31
-9249.78
-9377.79
-9441.3
-9469.56
-9476.95
-9471.18
-9456.63
-9435.95
-9410.78
-9382.21
-9350.96
-9317.54
-9282.37
-9245.78
-9208.07
-9169.55
-9130.54
-9091.36
-9052.4
-9014.03
-8976.7
-8940.85
-8906.97
-8875.58
-8847.19
-8822.34
-8801.55
-8785.36
-8774.23
-8768.64
-8768.96
-8775.51
-8788.48
-8807.93
-8833.73
-8865.49
-8902.5
-8943.53
-8986.67
-9028.86
-9065.15
-9087.17
-9079.74
-9012.7
-8819.12
-8330.06
-7059.42
-7094.65
-8435.22
-8992.62
-9251.9
-9380.96
-9445.79
-9475.63
-9484.86
-9481.16
-9468.92
-9450.75
-9428.29
-9402.59
-9374.39
-9344.17
-9312.32
-9279.17
-9245
-9210.09
-9174.73
-9139.23
-9103.92
-9069.16
-9035.34
-9002.87
-8972.19
-8943.77
-8918.08
-8895.59
-8876.79
-8862.15
-8852.11
-8847.07
-8847.39
-8853.34
-8865.08
-8882.66
-8905.93
-8934.52
-8967.7
-9004.31
-9042.45
-9079.12
-9109.45
-9125.14
-9111.08
-9037.23
-8836.7
-8340.63
-7062.94
-7094.42
-8434.6
-8991.83
-9251.27
-9380.87
-9446.62
-9477.76
-9488.63
-9486.88
-9476.86
-9461.16
-9441.39
-9418.59
-9393.45
-9366.46
-9337.98
-9308.31
-9277.72
-9246.46
-9214.8
-9183.02
-9151.41
-9120.29
-9090.02
-9060.96
-9033.52
-9008.09
-8985.11
-8965.01
-8948.21
-8935.14
-8926.18
-8921.7
-8922.01
-8927.34
-8937.84
-8953.53
-8974.26
-8999.65
-9029.01
-9061.21
-9094.39
-9125.64
-9150.17
-9159.76
-9139.44
-9059.23
-8852.35
-8349.98
-7066.05
-7093.41
-8431.72
-8987.48
-9246.01
-9375.32
-9441.38
-9473.38
-9485.59
-9485.6
-9477.68
-9464.38
-9447.27
-9427.35
-9405.28
-9381.52
-9356.42
-9330.26
-9303.27
-9275.69
-9247.76
-9219.72
-9191.83
-9164.38
-9137.68
-9112.06
-9087.86
-9065.45
-9045.2
-9027.49
-9012.69
-9001.19
-8993.31
-8989.38
-8989.67
-8994.38
-9003.62
-9017.42
-9035.6
-9057.81
-9083.39
-9111.23
-9139.57
-9165.58
-9184.57
-9188.48
-9162.47
-9076.71
-8864.51
-8357.11
-7068.4
-7091.02
-8424.86
-8976.94
-9232.81
-9360.53
-9425.99
-9458.22
-9471.35
-9472.83
-9466.84
-9455.84
-9441.32
-9424.24
-9405.22
-9384.7
-9362.99
-9340.34
-9316.97
-9293.08
-9268.89
-9244.6
-9220.44
-9196.68
-9173.56
-9151.38
-9130.43
-9111.03
-9093.51
-9078.19
-9065.4
-9055.45
-9048.65
-9045.27
-9045.53
-9049.61
-9057.6
-9069.5
-9085.15
-9104.22
-9126.06
-9149.66
-9173.33
-9194.37
-9208.25
-9207.1
-9176.31
-9086.28
-8870.51
-8360.29
-7069.38
-7086.05
-8410.65
-8955.18
-9205.53
-9329.65
-9393.14
-9424.71
-9438.19
-9440.79
-9436.49
-9427.64
-9415.63
-9401.34
-9385.35
-9368.04
-9349.71
-9330.58
-9310.83
-9290.64
-9270.18
-9249.65
-9229.23
-9209.14
-9189.61
-9170.86
-9153.16
-9136.78
-9121.98
-9109.04
-9098.25
-9089.85
-9084.12
-9081.27
-9081.5
-9084.95
-9091.69
-9101.71
-9114.86
-9130.82
-9149.03
-9168.53
-9187.76
-9204.19
-9213.53
-9208.22
-9174.01
-9081.73
-8865.26
-8356.1
-7067.77
-7075.86
-8381.95
-8911.9
-9151.91
-9269.33
-9328.91
-9358.62
-9371.7
-9374.96
-9372.09
-9365.21
-9355.61
-9344.05
-9331.05
-9316.94
-9301.98
-9286.35
-9270.21
-9253.71
-9236.99
-9220.21
-9203.53
-9187.11
-9171.14
-9155.83
-9141.37
-9127.99
-9115.9
-9105.34
-9096.53
-9089.68
-9085.01
-9082.69
-9082.88
-9085.7
-9091.19
-9099.35
-9110.03
-9122.96
-9137.63
-9153.2
-9168.27
-9180.56
-9186.11
-9177.86
-9142.2
-9050.79
-8838.45
-8337.39
-7060.93
-7053.86
-8321.86
-8824
-9045.56
-9151.54
-9204.49
-9230.78
-9242.57
-9245.97
-9244.21
-9239.13
-9231.82
-9222.92
-9212.87
-9201.94
-9190.32
-9178.19
-9165.65
-9152.83
-9139.84
-9126.81
-9113.84
-9101.09
-9088.69
-9076.79
-9065.57
-9055.17
-9045.79
-9037.59
-9030.75
-9025.44
-9021.81
-9020.02
-9020.17
-9022.36
-9026.62
-9032.93
-9041.18
-9051.14
-9062.39
-9074.22
-9085.45
-9094.13
-9096.81
-9087.19
-9052.81
-8967.04
-8766.96
-8287.26
-7042.27
-7000.94
-8185.87
-8634.3
-8823.84
-8911.43
-8954.19
-8975.19
-8984.69
-8987.66
-8986.7
-8983.24
-8978.11
-8971.82
-8964.67
-8956.88
-8948.6
-8939.95
-8931
-8921.85
-8912.59
-8903.28
-8894.03
-8884.93
-8876.08
-8867.6
-8859.59
-8852.17
-8845.48
-8839.63
-8834.76
-8830.97
-8828.39
-8827.11
-8827.22
-8828.78
-8831.81
-8836.3
-8842.17
-8849.23
-8857.16
-8865.44
-8873.16
-8878.8
-8879.63
-8870.51
-8841
-8767.82
-8593.61
-8161.18
-6992.66
-6851.18
-7841.67
-8185.82
-8321.71
-8381.58
-8409.97
-8423.7
-8429.91
-8431.95
-8431.51
-8429.5
-8426.47
-8422.71
-8418.44
-8413.78
-8408.82
-8403.63
-8398.26
-8392.78
-8387.22
-8381.64
-8376.1
-8370.64
-8365.34
-8360.25
-8355.45
-8351
-8346.99
-8343.49
-8340.57
-8338.3
-8336.75
-8335.98
-8336.05
-8336.98
-8338.8
-8341.49
-8344.99
-8349.2
-8353.92
-8358.81
-8363.31
-8366.43
-8366.41
-8359.8
-8339.37
-8288.13
-8161.43
-7826.87
-6846.22
-6334.16
-6851.17
-7000.91
-7053.8
-7075.73
-7085.81
-7090.61
-7092.78
-7093.51
-7093.39
-7092.73
-7091.73
-7090.48
-7089.06
-7087.51
-7085.85
-7084.12
-7082.34
-7080.51
-7078.66
-7076.8
-7074.95
-7073.13
-7071.37
-7069.67
-7068.07
-7066.59
-7065.25
-7064.09
-7063.11
-7062.36
-7061.84
-7061.59
-7061.61
-7061.92
-7062.52
-7063.42
-7064.58
-7065.98
-7067.55
-7069.16
-7070.64
-7071.63
-7071.53
-7069.09
-7061.66
-7042.61
-6992.79
-6846.24
-6332.51
-1402.07
-2230.77
-2524.87
-2647.78
-2706.22
-2736.74
-2753.71
-2763.47
-2769.14
-2772.36
-2774.03
-2774.71
-2774.71
-2774.26
-2773.49
-2772.5
-2771.34
-2770.07
-2768.72
-2767.31
-2765.89
-2764.45
-2763.03
-2761.65
-2760.32
-2759.07
-2757.9
-2756.85
-2755.93
-2755.15
-2754.52
-2754.07
-2753.79
-2753.69
-2753.74
-2753.92
-2754.17
-2754.43
-2754.55
-2754.32
-2753.4
-2751.25
-2746.93
-2738.78
-2723.68
-2695.23
-2639.03
-2518.51
-2226.91
-1400.77
-2230.77
-3941.79
-4654.61
-4980.62
-5143.26
-5230.36
-5279.42
-5307.89
-5324.49
-5333.91
-5338.81
-5340.76
-5340.73
-5339.36
-5337.03
-5334.03
-5330.55
-5326.73
-5322.68
-5318.47
-5314.18
-5309.88
-5305.62
-5301.47
-5297.48
-5293.72
-5290.22
-5287.07
-5284.29
-5281.95
-5280.09
-5278.73
-5277.9
-5277.58
-5277.74
-5278.29
-5279.08
-5279.87
-5280.27
-5279.65
-5277.03
-5270.79
-5258.24
-5234.63
-5191.14
-5110.26
-4954.37
-4635.55
-3930.22
-2226.9
-2524.88
-4654.64
-5616.08
-6083.1
-6326.03
-6459.78
-6536.48
-6581.47
-6607.88
-6622.89
-6630.66
-6633.68
-6633.5
-6631.12
-6627.19
-6622.16
-6616.34
-6609.95
-6603.18
-6596.16
-6589
-6581.83
-6574.73
-6567.8
-6561.15
-6554.86
-6549.04
-6543.77
-6539.15
-6535.25
-6532.14
-6529.89
-6528.5
-6527.98
-6528.26
-6529.21
-6530.58
-6531.99
-6532.79
-6531.99
-6528.02
-6518.32
-6498.66
-6461.76
-6394.36
-6270.99
-6039.32
-5584.29
-4635.36
-2518.42
-2647.83
-4980.75
-6083.22
-6641.18
-6941.19
-7110.49
-7209.31
-7267.96
-7302.61
-7322.33
-7332.46
-7336.24
-7335.72
-7332.21
-7326.6
-7319.48
-7311.28
-7302.31
-7292.8
-7282.95
-7272.92
-7262.86
-7252.91
-7243.21
-7233.88
-7225.07
-7216.91
-7209.53
-7203.05
-7197.58
-7193.24
-7190.08
-7188.15
-7187.44
-7187.88
-7189.27
-7191.3
-7193.44
-7194.84
-7194.17
-7189.36
-7177.08
-7151.9
-7104.59
-7018.81
-6864.03
-6579.82
-6038.66
-4953.71
-2638.76
-2706.33
-5143.55
-6326.41
-6941.49
-7280.34
-7475.41
-7590.98
-7660.29
-7701.46
-7724.88
-7736.76
-7740.92
-7739.82
-7735.04
-7727.65
-7718.39
-7707.77
-7696.18
-7683.92
-7671.23
-7658.31
-7645.35
-7632.54
-7620.04
-7608.04
-7596.7
-7586.19
-7576.69
-7568.35
-7561.32
-7555.73
-7551.67
-7549.21
-7548.34
-7548.96
-7550.85
-7553.63
-7556.65
-7558.88
-7558.72
-7553.68
-7539.85
-7510.87
-7456.16
-7357.37
-7181.01
-6862.49
-6269.04
-5108.75
-2694.67
-2736.94
-5230.91
-6460.57
-7111.32
-7476
-7689.07
-7816.81
-7894.02
-7940.05
-7966.15
-7979.14
-7983.3
-7981.37
-7975.15
-7965.88
-7954.4
-7941.32
-7927.08
-7912.04
-7896.49
-7880.67
-7864.81
-7849.13
-7833.83
-7819.14
-7805.26
-7792.4
-7780.77
-7770.56
-7761.96
-7755.13
-7750.19
-7747.21
-7746.19
-7747.04
-7749.5
-7753.13
-7757.18
-7760.49
-7761.24
-7756.62
-7742.25
-7711.14
-7651.79
-7544.6
-7354.43
-7014.64
-6390.35
-5188.31
-2722.66
-2754.03
-5280.36
-6537.88
-7210.95
-7592.52
-7817.83
-7954.05
-8036.84
-8086.25
-8114.09
-8127.59
-8131.35
-8128.34
-8120.53
-8109.27
-8095.51
-8079.91
-8063
-8045.16
-8026.74
-8008
-7989.23
-7970.67
-7952.57
-7935.19
-7918.76
-7903.55
-7889.78
-7877.71
-7867.54
-7859.47
-7853.64
-7850.16
-7849.02
-7850.13
-7853.22
-7857.8
-7863.06
-7867.7
-7869.74
-7866.14
-7852.18
-7820.42
-7758.78
-7646.87
-7448.66
-7096.53
-6454.79
-5229.95
-2737.14
-2763.97
-5309.34
-6583.71
-7270.72
-7663.19
-7896.58
-8038.47
-8124.96
-8176.5
-8205.26
-8218.74
-8221.75
-8217.42
-8207.87
-8194.52
-8178.41
-8160.27
-8140.65
-8120
-8098.69
-8077.04
-8055.35
-8033.91
-8013.01
-7992.93
-7973.96
-7956.39
-7940.5
-7926.55
-7914.82
-7905.51
-7898.81
-7894.83
-7893.6
-7895.01
-7898.8
-7904.43
-7911.03
-7917.23
-7920.92
-7918.89
-7906.16
-7875
-7812.93
-7699.12
-7497.03
-7138.57
-6487.74
-5251.12
-2744.46
-2769.87
-5326.62
-6611.22
-7306.86
-7706.2
-7944.73
-8090.19
-8178.93
-8231.61
-8260.61
-8273.61
-8275.56
-8269.72
-8258.28
-8242.77
-8224.26
-8203.53
-8181.2
-8157.73
-8133.53
-8108.97
-8084.37
-8060.06
-8036.36
-8013.59
-7992.08
-7972.16
-7954.14
-7938.33
-7925.03
-7914.49
-7906.93
-7902.47
-7901.17
-7902.92
-7907.46
-7914.22
-7922.3
-7930.27
-7935.92
-7935.89
-7925.07
-7895.5
-7834.45
-7720.82
-7517.78
-7157.02
-6502.4
-5260.6
-2747.74
-2773.37
-5336.89
-6627.64
-7328.5
-7731.99
-7973.6
-8121.13
-8211.01
-8264.05
-8292.75
-8304.9
-8305.54
-8298.02
-8284.59
-8266.85
-8245.9
-8222.58
-8197.52
-8171.24
-8144.17
-8116.7
-8089.21
-8062.04
-8035.56
-8010.12
-7986.09
-7963.83
-7943.7
-7926.04
-7911.18
-7899.43
-7891
-7886.08
-7884.73
-7886.85
-7892.18
-7900.15
-7909.82
-7919.71
-7927.56
-7929.91
-7921.52
-7894.3
-7835.36
-7723.41
-7521.45
-7161.06
-6506.04
-5263.12
-2748.65
-2775.4
-5342.84
-6637.13
-7340.99
-7746.83
-7990.09
-8138.58
-8228.81
-8281.63
-8309.6
-8320.61
-8319.75
-8310.42
-8294.94
-8274.92
-8251.52
-8225.6
-8197.83
-8168.76
-8138.84
-8108.5
-8078.14
-8048.15
-8018.92
-7990.84
-7964.31
-7939.73
-7917.51
-7898.02
-7881.62
-7868.66
-7859.4
-7854.03
-7852.64
-7855.15
-7861.3
-7870.53
-7881.87
-7893.82
-7904.04
-7909.04
-7903.48
-7879.16
-7823.1
-7713.87
-7514.4
-7156.13
-6502.88
-5261.4
-2748.1
-2776.5
-5346.05
-6642.23
-7347.63
-7754.6
-7998.52
-8147.22
-8237.2
-8289.37
-8316.32
-8325.98
-8323.49
-8312.27
-8294.68
-8272.37
-8246.52
-8218.02
-8187.58
-8155.74
-8123.02
-8089.85
-8056.67
-8023.9
-7991.96
-7961.28
-7932.3
-7905.44
-7881.16
-7859.86
-7841.96
-7827.82
-7817.73
-7811.92
-7810.51
-7813.43
-7820.43
-7830.95
-7844.01
-7858.08
-7870.81
-7878.63
-7876.17
-7855.15
-7802.49
-7696.7
-7500.61
-7145.64
-6495.53
-5257.05
-2746.66
-2777
-5347.5
-6644.5
-7350.49
-7757.77
-8001.69
-8150.07
-8239.41
-8290.63
-8316.35
-8324.52
-8320.3
-8307.15
-8287.44
-8262.85
-8234.58
-8203.55
-8170.47
-8135.94
-8100.47
-8064.54
-8028.61
-7993.12
-7958.53
-7925.31
-7893.93
-7864.85
-7838.55
-7815.5
-7796.12
-7780.82
-7769.93
-7763.7
-7762.27
-7765.61
-7773.47
-7785.28
-7800.08
-7816.32
-7831.62
-7842.38
-7843.18
-7825.69
-7776.76
-7674.85
-7482.73
-7131.75
-6485.64
-5251.13
-2744.69
-2777.12
-5347.84
-6644.96
-7350.92
-7757.98
-8001.46
-8149.17
-8237.6
-8287.68
-8312.04
-8318.64
-8312.65
-8297.56
-8275.76
-8248.92
-8218.29
-8184.79
-8149.15
-8112
-8073.87
-8035.26
-7996.66
-7958.54
-7921.39
-7885.71
-7851.99
-7820.76
-7792.51
-7767.75
-7746.94
-7730.51
-7718.85
-7712.22
-7710.78
-7714.54
-7723.24
-7736.34
-7752.88
-7771.29
-7789.17
-7802.9
-7807.03
-7793.17
-7748.15
-7650.36
-7462.52
-7115.94
-6474.31
-5244.32
-2742.42
-2777.01
-5347.48
-6644.27
-7349.82
-7756.31
-7999.08
-8145.9
-8233.26
-8282.09
-8305.03
-8310.03
-8302.28
-8285.28
-8261.42
-8232.42
-8199.5
-8163.62
-8125.52
-8085.85
-8045.16
-8003.98
-7962.81
-7922.17
-7882.56
-7844.52
-7808.57
-7775.26
-7745.14
-7718.74
-7696.55
-7679.05
-7666.64
-7659.63
-7658.19
-7662.36
-7671.89
-7686.25
-7704.48
-7725.02
-7745.44
-7762.12
-7769.56
-7759.36
-7718.28
-7624.69
-7441.26
-7099.25
-6462.3
-5237.09
-2740
-2776.75
-5346.69
-6642.9
-7347.79
-7753.53
-7995.42
-8141.23
-8227.44
-8274.98
-8296.48
-8299.9
-8290.43
-8271.59
-8245.76
-8214.67
-8179.57
-8141.42
-8100.99
-8058.93
-8015.81
-7972.19
-7928.59
-7885.55
-7843.61
-7803.32
-7765.25
-7729.98
-7698.08