/*--------------------------------*- C++ -*----------------------------------*\
| =========                 |                                                 |
| \\      /  F ield         | OpenFOAM: The Open Source CFD Toolbox           |
|  \\    /   O peration     | Version:  5.x                                   |
|   \\  /    A nd           | Web:      www.OpenFOAM.org                      |
|    \\/     M anipulation  |                                                 |
\*---------------------------------------------------------------------------*/
FoamFile
{
    version     2.0;
    format      ascii;
    class       volScalarField;
    location    "0.6";
    object      gradTx;
}
// * * * * * * * * * * * * * * * * * * * * * * * * * * * * * * * * * * * * * //

dimensions      [0 -1 0 1 0 0 0];

internalField   nonuniform List<scalar> 
25000
(
5157.43
2438.6
1523.99
1127.84
921
800.277
726.011
680.001
652.622
638.177
632.953
634.324
640.288
649.216
659.707
670.512
680.478
688.521
693.612
694.768
691.055
681.59
665.544
642.16
610.758
570.747
521.643
463.079
394.818
316.768
228.988
131.699
25.2837
-89.7129
-212.597
-342.544
-478.632
-619.898
-765.407
-914.379
-1066.36
-1221.53
-1381.2
-1548.76
-1731.67
-1946.19
-2230.25
-2685.61
-3640.32
-6379.4
10444.5
6198.55
4270.74
3281.1
2719.43
2378.75
2165.41
2032.2
1952.8
1911.14
1896.57
1901.44
1919.87
1947.06
1978.84
2011.5
2041.59
2065.88
2081.28
2084.86
2073.81
2045.48
1997.4
1927.29
1833.12
1713.1
1565.8
1390.1
1185.3
951.132
687.765
395.868
76.5975
-268.407
-637.053
-1026.85
-1435.02
-1858.64
-2294.85
-2741.23
-3196.31
-3660.35
-4136.83
-4634.87
-5174.32
-5796.51
-6589.95
-7757.33
-9805.52
-14112.2
13781.4
9028.93
6601.38
5237.6
4416.44
3900.28
3570.47
3362.53
3238.5
3174.3
3153.49
3164.02
3196.48
3243.09
3297.07
3352.29
3403.07
3444.07
3470.17
3476.48
3458.36
3411.39
3331.45
3214.75
3057.89
2857.93
2612.45
2319.61
1978.25
1587.9
1148.88
662.3
130.111
-444.934
-1059.31
-1708.84
-2388.8
-3094.22
-3820.21
-4562.49
-5318.18
-6087.04
-6873.5
-7690.09
-8563.96
-9549.78
-10757.6
-12417.9
-15046.3
-19900.2
16199.8
11249.6
8572.87
6986.12
5990.06
5345.74
4926.74
4660.47
4502.14
4422.19
4399.77
4419.25
4468.17
4536.02
4613.6
4692.5
4764.89
4823.33
4860.74
4870.3
4845.53
4780.26
4668.74
4505.67
4286.3
4006.51
3662.92
3252.96
2775.01
2228.43
1613.67
932.333
187.165
-617.93
-1477.96
-2386.96
-3338.23
-4324.59
-5338.92
-6374.77
-7427.39
-8495.22
-9582.22
-10701.8
-11883.5
-13186.3
-14724.4
-16726.9
-19685.2
-24777.5
18111.5
13072.9
10266.9
8549.46
7441
6709.05
6227.01
5919.53
5738.35
5650.51
5632.07
5664.56
5732.94
5824.36
5927.35
6031.38
6126.54
6203.41
6252.93
6266.42
6235.57
6152.48
6009.78
5800.66
5519.03
5159.6
4718.02
4191.02
3576.5
2873.69
2083.18
1207.06
248.92
-786.148
-1891.62
-3059.7
-4281.55
-5547.68
-6848.48
-8175.02
-9520.16
-10880.2
-12257.3
-13663.7
-15128.1
-16708
-18514.6
-20767.5
-23936.2
-29157.7
19708.8
14626.8
11751.5
9958.08
8780.25
7992.15
7469.44
7136.54
6943.74
6856.12
6847.57
6897.5
6988.74
7106.35
7236.83
7367.66
7486.96
7583.38
7645.98
7664.2
7627.96
7527.65
7354.26
7099.52
6755.99
6317.21
5777.88
5134.03
4383.1
3524.17
2558.02
1487.24
316.299
-948.484
-2299
-3725.52
-5216.98
-6761.38
-8346.44
-9960.41
-11593.3
-13238.6
-14895.7
-16574.1
-18299.6
-20126
-22158.7
-24607.7
-27927
-33233.2
21093.6
15989.1
13076.3
11239.9
10021.6
9200.71
8655.33
8310.6
8116.4
8036.66
8043.86
8115.7
8233.27
8379.81
8539.98
8699.39
8844.32
8961.53
9038.24
9062.11
9021.26
8904.41
8700.95
8401.13
7996.18
7478.49
6841.82
6081.47
5194.48
4179.76
3038.31
1773.25
389.942
-1104
-2698.84
-4382.82
-6142.55
-7963.39
-9830.16
-11728
-13643.7
-15567.5
-17495.3
-19432.9
-21402.2
-23452.5
-25682.9
-28295.4
-31734
-37103.8
22325.1
17209.1
14276.7
12417.6
11178.3
10341.5
9787.38
9442.02
9255.21
9190.28
9218.61
9316.61
9463.88
9642.05
9834.09
10023.9
10195.9
10335.2
10427.1
10457.5
10412.9
10280.3
10047.5
9703.29
9237.55
8641.57
7908.16
7031.93
6009.49
4839.65
3523.58
2064.99
470.176
-1251.94
-3089.91
-5029.92
-7056.11
-9151.1
-11296.6
-13474.6
-15668.2
-17864
-20054
-22240.2
-24439.8
-26697.2
-29106.2
-31862.2
-35402.2
-40824.9
23439.9
18318.6
15377.3
13508.5
12261.3
11420.7
10868.5
10531.5
10359.4
10315.2
10369.4
10497.4
10677.4
10889.7
11115.7
11337.5
11538.1
11700.6
11808.8
11846.8
11799.3
11651.8
11390.4
11002.6
10476.9
9803.49
8974.23
7983.06
6826.17
5502.27
4012.75
2361.91
556.997
-1391.71
-3471.02
-5664.97
-7955.21
-10321.5
-12742.4
-15196.2
-17662.7
-20124.3
-22569
-24994.5
-27413.6
-29866
-32440.2
-35326.7
-38957.4
-44426.6
24461.7
19338.9
16395.3
14525.2
13279.1
12443.5
11901.2
11579.3
11427.9
11409.3
11493.4
11654.7
11870.2
12118.8
12380.4
12635.8
12866.2
13053
13178.5
13224.9
13175.5
13013.9
12724.9
12294.4
11709.9
10960.1
10036.2
8931.49
7641.63
6165.28
4504.09
2662.94
650.066
-1522.88
-3840.93
-6285.94
-8837
-11470.9
-14163
-16888.1
-19622
-22343.2
-25035.6
-27692.4
-30322.1
-32959.8
-35689.7
-38697.8
-42412.1
-47924
25406.1
20284.1
17342.7
15476.7
14237.9
13413.6
12887
12585.6
12459.2
12470.1
12587.4
12784.6
13037.7
13324.4
13623.1
13913.3
14174.4
14386.5
14530.1
14585.8
14535.2
14360.5
14044.9
13573
12930.8
12106.2
11089.4
9872.85
8452.08
6825.57
4995.22
2966.53
748.719
-1645.17
-4198.37
-6890.54
-9698.2
-12595.2
-15553.5
-18544.4
-21539.8
-24514.2
-27447.3
-30327.9
-33160.4
-35975.5
-38853.5
-41976.5
-45769.4
-51321.3
26283.4
21163.6
18227.1
16369.1
15141.8
14333
13826.3
13549.2
13451.4
13494.6
13647.5
13882.5
14174.8
14500.7
14837.7
15163.4
15456
15694.1
15856.4
15922.1
15871.2
15684.3
15343.3
14831.2
14132.9
13235.3
12127.6
10801.8
9252.86
7479.26
5483.15
3270.66
851.99
-1758.42
-4542.01
-7476.26
-10535.1
-13689.3
-16907.8
-20158
-23408.2
-26628.7
-29795.2
-32892.3
-35920.2
-38905.7
-41925.2
-45157.7
-49025.3
-54615
27099.8
21983.3
19053.5
17205.9
15993
15202.7
14718.7
14468.5
14401.5
14479
14669
14943.2
15275.6
15641.5
16017.1
16378.8
16703.4
16967.7
17149.2
17225.5
17175
16976.9
16611.6
16060.9
15308.5
14340.1
13144.2
11712.1
10038.5
8121.78
5964.32
3572.87
958.633
-1862.59
-4870.45
-8040.27
-11343.4
-14747.8
-18218.9
-21720.8
-25217.9
-28676.6
-32068.6
-35374.4
-38590.3
-41739.2
-44894.3
-48231.3
-52170
-57795.7
27859.1
22746.5
19824.6
17988.9
16792.1
16022.1
15562.6
15340.9
15306.1
15419
15646.8
15960.6
16333.4
16739.5
17153.8
17551.4
17907.8
18198.5
18399.4
18486.6
18437.2
18228.8
17840.6
17253.1
16448.7
15412.2
14131.4
12596.8
10802.9
8747.97
6434.67
3870.35
1067.17
-1957.72
-5182.23
-8579.55
-12118.5
-15764.3
-19479
-23223.5
-26958.4
-30646.2
-34254.8
-37760.8
-41156.7
-44461.9
-47746.3
-51183
-55189.4
-60849.4
28563.1
23454.7
20541.3
18718.4
17538.6
16789.8
16355.7
16163.1
16160.9
16309.4
16575.1
16928.3
17341.2
17787
18239.4
18672.4
19060.2
19376.9
19597
19695.4
19647.5
19429.9
19020.2
18397.7
17543.9
16442.6
15080.7
13448.2
11539.3
9352.15
6889.74
4159.95
1175.92
-2043.91
-5475.78
-9090.82
-12855.5
-16732
-20679.8
-24656.1
-28617.9
-32524.4
-36339.4
-40036.1
-43603.2
-47057
-50464.2
-53995.4
-58065.9
-63758.4
29211.9
24107.9
21203.2
19393.3
18230.8
17503.5
17094.7
16931.2
16961.3
17144.8
17447.7
17839.4
18291.3
18775.6
19265.1
19732.5
20150.7
20492.7
20731.7
20841.1
20795.3
20569.3
20139.6
19484.5
18584.2
17421.8
15983.2
14258.3
12240.5
9928.31
7324.75
4438.34
1283.08
-2121.33
-5749.53
-9570.69
-13548.9
-17644
-21812.1
-26007.5
-30183.9
-34296.9
-38306.9
-42183.4
-45912
-49505.7
-53028.5
-56648.6
-60779.5
-66502.4
29804.8
24705.1
21809
20012
18866.6
18160.2
17776.2
17640.9
17702.2
17919.5
18258.1
18686.8
19176
19697.1
20221.9
20722.1
21169.4
21535.6
21792.7
21912.9
21869.4
21635.9
21187.9
20502.5
19559.1
18339.7
16829.8
15018.5
12899.2
10470.2
7734.79
4702.02
1386.75
-2190.17
-6001.85
-10015.6
-14193.5
-18492.6
-22866.6
-27266.7
-31643.4
-35949
-40140.8
-44185
-48064
-51788
-55418.4
-59121.3
-63308.3
-69059.6
30340
25244.6
22356.7
20572.1
19442.9
18756.5
18396
18287.5
18378.4
18627.5
18999.7
19463
19987.2
20542.9
21100.7
21631.6
22106.1
22495
22769.2
22899.8
22858.7
22618.7
22154.1
21441.1
20458.2
19186.6
17611.2
15720.6
13508
10971.5
8114.87
4947.48
1484.99
-2250.63
-6231.13
-10422.1
-14783.6
-19270.4
-23833.8
-28422
-32982.9
-37465.6
-41824.4
-46022.6
-50039.8
-53883.4
-57612.6
-61391.3
-65629.8
-71407.2
30815.7
25724.1
22843.9
21070.7
19956.6
19288.9
18950.1
18866.2
18984.3
19262.8
19665.8
20161
20717.3
21304.6
21892.7
22451.6
22951.1
23360.9
23650.8
23791
23752.3
23506.7
23027.4
22289.7
21271.2
19952.7
18318.3
16356.3
14059.5
11426.2
8460.11
5171.24
1575.91
-2302.95
-6435.81
-10786.8
-15313.9
-19970.2
-24704.4
-29462.4
-34189.3
-38831.8
-43341.2
-47678.3
-51819.9
-55771.3
-59589.4
-63436.5
-67721.4
-73522.2
31229.2
26141.1
23268
21505.1
20404.6
19753.5
19434.3
19372.5
19515
19819.7
20250.3
20773.9
21358.8
21974.3
22589.4
23173.4
23695.1
24123.5
24427.5
24576.4
24540.1
24289.6
23797.5
23038.2
21988.6
20628.9
18942.6
16917.7
14546.9
11828.3
8765.87
5370.03
1657.69
-2347.33
-6614.4
-11106.2
-15779.3
-20584.9
-25469.5
-30377
-35250.2
-40033.3
-44675.3
-49134.5
-53385.7
-57432
-61328.3
-65235.5
-69561.2
-75382.6
31578.4
26493.3
23626.2
21872.3
20783.5
20146.9
19844.6
19802
19965.6
20292.9
20747.3
21295.4
21905
22544.7
23183.1
23788.6
24329.5
24773.9
25090.1
25246.5
25212.4
24958
24455.1
23677.4
22601.4
21206.6
19476.1
17397.6
14963.7
12172.4
9027.87
5540.79
1728.66
-2383.98
-6765.52
-11377.5
-16175.2
-21108
-26120.9
-31156
-36153.9
-41056.9
-45812
-50375.4
-54720
-58847
-62810.1
-66768.6
-71129
-76967.9
31860.9
26778.3
23916.2
22169.7
21090.6
20465.9
20177.6
20150.7
20331.7
20677.6
21151.6
21719.8
22349.7
23009.3
23666.8
24290
24846.7
25304.4
25630.6
25793.3
25761
25503.5
24991.8
24199.3
23101.8
21678.3
19911.9
17789.8
15304.4
12453.8
9242.34
5680.86
1787.34
-2413.06
-6887.98
-11598
-16497.2
-21533.8
-26651.4
-31790.5
-36890.1
-41890.9
-46738.2
-51386.5
-55807.3
-60000.2
-64017.7
-68017.9
-72406.7
-78259.9
32074.7
26994
24135.7
22394.9
21323.3
20707.8
20430.1
20415.4
20609.6
20969.8
21458.8
22042.4
22687.9
23362.8
24034.9
24671.7
25240.4
25708.2
26042.2
26209.7
26178.9
25919
25400.7
24596.9
23483.1
22037.9
20244.1
18088.8
15564.2
12668.6
9406.09
5787.97
1832.49
-2434.74
-6980.75
-11765.4
-16741.9
-21857.6
-27054.9
-32273.2
-37450.3
-42525.5
-47442.9
-52156
-56634.7
-60877.8
-64936.6
-68968.6
-73379
-79243.1
32218.1
27138.8
24283.1
22546.1
21479.6
20870.3
20599.9
20593.3
20796.6
21166.4
21665.6
22259.7
22915.6
23600.8
24282.8
24928.8
25505.8
25980.4
26319.6
26490.4
26460.6
26199.1
25676.4
24865
23740.2
22280.4
20468.2
18290.5
15739.6
12813.5
9516.67
5860.38
1863.14
-2449.13
-7043.06
-11878
-16906.7
-22075.6
-27326.7
-32598.2
-37827.5
-42953
-47917.7
-52674.3
-57192
-61469
-65555.7
-69609.1
-74034
-79905.5
32290.1
27211.5
24357.1
22622
21558.1
20951.9
20685.2
20682.8
20890.5
21265.3
21769.6
22368.9
23030.1
23720.6
24407.6
25058.2
25639.3
26117.4
26459.2
26631.6
26602.4
26340.1
25815.2
25000
23869.6
22402.5
20581
18392.1
15827.9
12886.5
9572.38
5896.88
1878.62
-2456.32
-7074.36
-11934.7
-16989.5
-22185.3
-27463.3
-32761.8
-38017.4
-43168.1
-48156.6
-52935.1
-57472.5
-61766.4
-65867.2
-69931.4
-74363.6
-80238.7
32290.1
27211.5
24357.1
22622
21558.1
20951.9
20685.2
20682.8
20890.5
21265.3
21769.6
22368.9
23030.1
23720.6
24407.6
25058.2
25639.3
26117.4
26459.2
26631.6
26602.4
26340.1
25815.2
25000
23869.6
22402.5
20581
18392.1
15827.9
12886.5
9572.37
5896.87
1878.61
-2456.33
-7074.38
-11934.7
-16989.5
-22185.3
-27463.4
-32761.8
-38017.4
-43168.1
-48156.6
-52935.1
-57472.5
-61766.4
-65867.1
-69931.4
-74363.6
-80238.7
32218.1
27138.8
24283.1
22546.1
21479.6
20870.3
20599.9
20593.4
20796.6
21166.4
21665.6
22259.7
22915.6
23600.8
24282.9
24928.8
25505.8
25980.4
26319.6
26490.4
26460.6
26199.1
25676.4
24865
23740.2
22280.4
20468.2
18290.5
15739.6
12813.5
9516.63
5860.34
1863.09
-2449.18
-7043.11
-11878.1
-16906.7
-22075.7
-27326.7
-32598.3
-37827.6
-42953
-47917.7
-52674.3
-57192
-61468.9
-65555.6
-69609.1
-74033.9
-79905.4
32074.7
26994
24135.7
22394.9
21323.3
20707.8
20430.2
20415.4
20609.6
20969.8
21458.9
22042.5
22687.9
23362.8
24034.9
24671.7
25240.5
25708.3
26042.2
26209.7
26178.9
25919
25400.7
24596.9
23483.1
22037.9
20244.1
18088.8
15564.2
12668.5
9406.03
5787.91
1832.42
-2434.82
-6980.84
-11765.5
-16742
-21857.7
-27055
-32273.2
-37450.3
-42525.6
-47443
-52156
-56634.6
-60877.7
-64936.5
-68968.5
-73378.9
-79243
31860.9
26778.3
23916.2
22169.7
21090.7
20465.9
20177.6
20150.8
20331.7
20677.6
21151.6
21719.8
22349.7
23009.4
23666.8
24290.1
24846.8
25304.4
25630.6
25793.3
25761.1
25503.5
24991.8
24199.3
23101.8
21678.3
19911.9
17789.7
15304.3
12453.8
9242.26
5680.77
1787.25
-2413.17
-6888.09
-11598.1
-16497.3
-21533.9
-26651.5
-31790.6
-36890.2
-41891
-46738.2
-51386.5
-55807.2
-60000.2
-64017.6
-68017.8
-72406.5
-78259.8
31578.4
26493.3
23626.2
21872.3
20783.6
20146.9
19844.7
19802
19965.6
20292.9
20747.4
21295.4
21905
22544.7
23183.1
23788.6
24329.6
24774
25090.2
25246.6
25212.5
24958
24455.1
23677.4
22601.4
21206.6
19476.1
17397.6
14963.6
12172.3
9027.78
5540.69
1728.54
-2384.11
-6765.66
-11377.7
-16175.3
-21108.1
-26121
-31156.1
-36154
-41057
-45812
-50375.4
-54719.9
-58847
-62810
-66768.4
-71128.8
-76967.7
31229.3
26141.1
23268
21505.1
20404.6
19753.5
19434.3
19372.6
19515.1
19819.7
20250.4
20774
21358.9
21974.3
22589.5
23173.4
23695.2
24123.6
24427.5
24576.4
24540.1
24289.7
23797.5
23038.2
21988.6
20628.9
18942.5
16917.6
14546.8
11828.2
8765.76
5369.9
1657.55
-2347.49
-6614.56
-11106.4
-15779.5
-20585
-25469.6
-30377.1
-35250.3
-40033.4
-44675.3
-49134.5
-53385.7
-57431.9
-61328.2
-65235.3
-69561
-75382.4
30815.7
25724.1
22843.9
21070.7
19956.6
19288.9
18950.1
18866.3
18984.4
19262.8
19665.9
20161.1
20717.4
21304.7
21892.8
22451.7
22951.2
23361
23650.9
23791.1
23752.4
23506.7
23027.4
22289.7
21271.2
19952.7
18318.3
16356.2
14059.4
11426.1
8459.99
5171.1
1575.75
-2303.13
-6436
-10786.9
-15314.1
-19970.4
-24704.5
-29462.5
-34189.5
-38831.9
-43341.3
-47678.3
-51819.8
-55771.2
-59589.2
-63436.3
-67721.2
-73521.9
30340
25244.6
22356.8
20572.1
19442.9
18756.6
18396.1
18287.5
18378.4
18627.5
18999.7
19463.1
19987.3
20543
21100.8
21631.7
22106.2
22495.1
22769.3
22899.9
22858.7
22618.7
22154.2
21441.1
20458.2
19186.6
17611.1
15720.5
13507.9
10971.4
8114.73
4947.32
1484.81
-2250.83
-6231.34
-10422.3
-14783.8
-19270.7
-23834
-28422.2
-32983
-37465.7
-41824.5
-46022.6
-50039.7
-53883.3
-57612.4
-61391
-65629.6
-71406.9
29804.8
24705.1
21809
20012
18866.6
18160.3
17776.2
17640.9
17702.3
17919.6
18258.2
18686.8
19176.1
19697.2
20222
20722.2
21169.5
21535.7
21792.7
21913
21869.4
21636
21188
20502.6
19559.1
18339.7
16829.8
15018.4
12899.1
10470.1
7734.65
4701.86
1386.56
-2190.37
-6002.07
-10015.9
-14193.7
-18492.8
-22866.8
-27266.8
-31643.5
-35949.1
-40140.9
-44185
-48063.9
-51787.9
-55418.2
-59121
-63308
-69059.3
29211.9
24107.9
21203.2
19393.3
18230.9
17503.6
17094.8
16931.3
16961.4
17144.9
17447.8
17839.5
18291.4
18775.8
19265.2
19732.6
20150.8
20492.8
20731.8
20841.2
20795.4
20569.3
20139.6
19484.5
18584.2
17421.7
15983.2
14258.2
12240.4
9928.18
7324.6
4438.17
1282.88
-2121.54
-5749.76
-9570.93
-13549.2
-17644.2
-21812.3
-26007.7
-30184.1
-34297
-38306.9
-42183.4
-45911.9
-49505.5
-53028.3
-56648.3
-60779.2
-66502.1
28563.1
23454.7
20541.3
18718.4
17538.6
16789.9
16355.7
16163.2
16161
16309.4
16575.2
16928.4
17341.3
17787.1
18239.5
18672.5
19060.3
19377
19597.1
19695.5
19647.6
19430
19020.2
18397.7
17543.9
16442.6
15080.6
13448.2
11539.2
9352.03
6889.58
4159.78
1175.72
-2044.13
-5476.02
-9091.07
-12855.7
-16732.3
-20680
-24656.3
-28618.1
-32524.5
-36339.5
-40036.1
-43603.1
-47056.8
-50463.9
-53995.1
-58065.6
-63758
27859.1
22746.5
19824.6
17988.9
16792.1
16022.1
15562.6
15340.9
15306.1
15419
15646.9
15960.7
16333.5
16739.6
17153.9
17551.6
17907.9
18198.6
18399.5
18486.7
18437.3
18228.9
17840.7
17253.1
16448.7
15412.2
14131.3
12596.8
10802.8
8747.84
6434.52
3870.17
1066.97
-1957.94
-5182.46
-8579.79
-12118.8
-15764.5
-19479.3
-23223.8
-26958.5
-30646.4
-34254.9
-37760.8
-41156.6
-44461.8
-47746.1
-51182.7
-55189.1
-60849
27099.7
21983.3
19053.5
17205.9
15993
15202.7
14718.7
14468.5
14401.6
14479.1
14669.1
14943.2
15275.7
15641.6
16017.2
16378.9
16703.5
16967.8
17149.3
17225.6
17175.1
16977
16611.7
16061
15308.5
14340.1
13144.2
11712.1
10038.4
8121.66
5964.18
3572.69
958.433
-1862.81
-4870.69
-8040.52
-11343.6
-14748
-18219.1
-21721
-25218.1
-28676.8
-32068.7
-35374.4
-38590.2
-41739.1
-44894
-48231
-52169.7
-57795.4
26283.3
21163.6
18227.1
16369.1
15141.8
14333
13826.3
13549.2
13451.5
13494.7
13647.6
13882.6
14174.9
14500.9
14837.8
15163.5
15456.1
15694.2
15856.5
15922.2
15871.3
15684.4
15343.3
14831.2
14133
13235.3
12127.6
10801.7
9252.77
7479.14
5483.01
3270.49
851.796
-1758.64
-4542.24
-7476.5
-10535.3
-13689.6
-16908
-20158.2
-23408.4
-26628.8
-29795.3
-32892.3
-35920.1
-38905.6
-41925
-45157.5
-49025
-54614.7
25406.1
20284.1
17342.6
15476.7
14237.9
13413.6
12887
12585.6
12459.3
12470.2
12587.5
12784.7
13037.8
13324.5
13623.2
13913.4
14174.5
14386.6
14530.2
14585.9
14535.3
14360.6
14045
13573
12930.8
12106.2
11089.3
9872.79
8452
6825.46
4995.09
2966.37
748.535
-1645.37
-4198.59
-6890.78
-9698.43
-12595.4
-15553.7
-18544.6
-21540
-24514.3
-27447.3
-30327.9
-33160.3
-35975.4
-38853.3
-41976.2
-45769.1
-51321
24461.7
19338.8
16395.3
14525.1
13279.1
12443.5
11901.2
11579.4
11427.9
11409.3
11493.5
11654.8
11870.3
12118.9
12380.5
12635.9
12866.3
13053.1
13178.6
13225
13175.5
13013.9
12725
12294.5
11709.9
10960.1
10036.2
8931.44
7641.56
6165.18
4503.96
2662.79
649.893
-1523.08
-3841.13
-6286.16
-8837.22
-11471.1
-14163.2
-16888.3
-19622.2
-22343.3
-25035.7
-27692.4
-30322.1
-32959.7
-35689.5
-38697.6
-42411.8
-47923.7
23439.8
18318.5
15377.2
13508.4
12261.3
11420.7
10868.5
10531.5
10359.4
10315.2
10369.5
10497.5
10677.5
10889.8
11115.8
11337.6
11538.2
11700.7
11808.9
11846.9
11799.4
11651.8
11390.5
11002.6
10476.9
9803.49
8974.22
7983.02
6826.11
5502.18
4012.64
2361.77
556.837
-1391.89
-3471.21
-5665.17
-7955.42
-10321.7
-12742.6
-15196.4
-17662.8
-20124.4
-22569.1
-24994.5
-27413.6
-29865.8
-32440
-35326.5
-38957.1
-44426.3
22325
17209
14276.6
12417.6
11178.3
10341.5
9787.39
9442.04
9255.25
9190.33
9218.67
9316.68
9463.96
9642.13
9834.18
10024
10196
10335.3
10427.2
10457.6
10413
10280.4
10047.6
9703.33
9237.58
8641.58
7908.15
7031.9
6009.44
4839.57
3523.48
2064.87
470.032
-1252.11
-3090.09
-5030.1
-7056.3
-9151.29
-11296.8
-13474.8
-15668.4
-17864.1
-20054.1
-22240.2
-24439.7
-26697.1
-29106
-31862
-35401.9
-40824.6
21093.6
15989.1
13076.2
11239.9
10021.6
9200.7
8655.33
8310.62
8116.43
8036.71
8043.91
8115.76
8233.34
8379.89
8540.07
8699.48
8844.41
8961.62
9038.33
9062.19
9021.34
8904.48
8701.01
8401.18
7996.21
7478.5
6841.81
6081.45
5194.43
4179.7
3038.22
1773.14
389.815
-1104.15
-2698.99
-4382.99
-6142.72
-7963.56
-9830.32
-11728.2
-13643.9
-15567.6
-17495.3
-19432.9
-21402.2
-23452.4
-25682.7
-28295.2
-31733.8
-37103.6
19708.8
14626.8
11751.4
9958.04
8780.22
7992.13
7469.44
7136.55
6943.77
6856.15
6847.62
6897.56
6988.8
7106.42
7236.91
7367.74
7487.05
7583.47
7646.06
7664.28
7628.03
7527.71
7354.32
7099.57
6756.02
6317.22
5777.88
5134.01
4383.07
3524.12
2557.95
1487.15
316.19
-948.608
-2299.14
-3725.66
-5217.13
-6761.53
-8346.59
-9960.54
-11593.4
-13238.6
-14895.7
-16574.1
-18299.5
-20125.9
-22158.6
-24607.5
-27926.8
-33233
18111.4
13072.9
10266.9
8549.42
7440.98
6709.04
6227.01
5919.54
5738.37
5650.54
5632.11
5664.6
5733
5824.42
5927.42
6031.45
6126.61
6203.48
6253
6266.49
6235.63
6152.54
6009.83
5800.7
5519.06
5159.61
4718.02
4191.01
3576.48
2873.65
2083.12
1206.98
248.83
-786.25
-1891.74
-3059.83
-4281.68
-5547.81
-6848.61
-8175.14
-9520.26
-10880.3
-12257.4
-13663.7
-15128
-16708
-18514.5
-20767.4
-23936
-29157.6
16199.8
11249.6
8572.84
6986.09
5990.04
5345.72
4926.73
4660.48
4502.16
4422.21
4399.8
4419.29
4468.21
4536.07
4613.65
4692.56
4764.94
4823.39
4860.8
4870.36
4845.58
4780.31
4668.79
4505.71
4286.33
4006.53
3662.92
3252.95
2774.99
2228.39
1613.62
932.274
187.094
-618.011
-1478.05
-2387.06
-3338.33
-4324.69
-5339.01
-6374.86
-7427.47
-8495.29
-9582.26
-10701.8
-11883.5
-13186.2
-14724.4
-16726.8
-19685.1
-24777.4
13781.4
9028.91
6601.35
5237.58
4416.42
3900.27
3570.47
3362.53
3238.51
3174.32
3153.51
3164.05
3196.52
3243.13
3297.11
3352.33
3403.12
3444.11
3470.21
3476.52
3458.4
3411.42
3331.48
3214.77
3057.91
2857.94
2612.45
2319.61
1978.24
1587.88
1148.84
662.258
130.06
-444.993
-1059.38
-1708.91
-2388.87
-3094.3
-3820.28
-4562.55
-5318.24
-6087.09
-6873.53
-7690.1
-8563.94
-9549.74
-10757.6
-12417.8
-15046.2
-19900.1
10444.5
6198.53
4270.73
3281.08
2719.42
2378.75
2165.41
2032.21
1952.81
1911.15
1896.58
1901.46
1919.89
1947.08
1978.86
2011.52
2041.62
2065.9
2081.3
2084.88
2073.83
2045.5
1997.42
1927.31
1833.13
1713.11
1565.8
1390.1
1185.3
951.118
687.745
395.843
76.5669
-268.443
-637.093
-1026.9
-1435.07
-1858.68
-2294.89
-2741.27
-3196.34
-3660.38
-4136.84
-4634.87
-5174.31
-5796.49
-6589.92
-7757.29
-9805.47
-14112.2
5157.43
2438.59
1523.98
1127.84
920.996
800.274
726.01
680.002
652.625
638.18
632.958
634.33
640.295
649.223
659.715
670.521
680.487
688.53
693.621
694.777
691.064
681.597
665.551
642.166
610.762
570.75
521.644
463.078
394.816
316.764
228.982
131.69
25.2735
-89.7248
-212.61
-342.558
-478.647
-619.913
-765.422
-914.393
-1066.38
-1221.54
-1381.21
-1548.76
-1731.67
-1946.18
-2230.24
-2685.59
-3640.3
-6379.38
2440.92
1764.54
1316.79
1049.65
886.237
782.994
716.858
675.067
650.065
637.043
632.716
634.676
641.039
650.245
660.935
671.885
681.956
690.073
695.214
696.398
692.692
683.214
667.136
643.7
612.224
572.118
522.898
464.197
395.777
317.549
229.574
132.075
25.4414
-89.7768
-212.875
-343.016
-479.257
-620.604
-766.078
-914.822
-1066.26
-1220.34
-1377.95
-1541.58
-1716.62
-1913.88
-2154.69
-2481.19
-2969.14
-3665.81
6204.66
4845.34
3777.91
3075.51
2623.03
2329.52
2138.98
2017.86
1945.35
1907.86
1895.93
1902.53
1922.15
1950.16
1982.53
2015.62
2046.03
2070.54
2086.09
2089.75
2078.72
2050.36
2002.18
1931.91
1837.52
1717.22
1569.56
1393.45
1188.18
953.475
689.522
396.996
77.068
-268.603
-637.895
-1028.28
-1436.91
-1860.78
-2296.9
-2742.63
-3196.12
-3657.01
-4127.53
-4614.35
-5131.78
-5707.48
-6392.28
-7272.84
-8460.94
-9881.17
9037.62
7368.53
5943.63
4944.78
4272.86
3824.83
3529.28
3339.98
3226.79
3169.21
3152.63
3165.97
3200.35
3248.31
3303.25
3359.18
3410.48
3451.85
3478.19
3484.64
3466.55
3419.52
3339.42
3222.45
3065.23
2864.79
2618.73
2325.21
1983.05
1591.81
1151.81
664.179
130.891
-445.269
-1060.73
-1711.24
-2392
-3097.87
-3823.76
-4565.03
-5318.24
-6082.17
-6859.37
-7658.76
-8499.68
-9418.48
-10478
-11774.1
-13400.3
-15171
11259.8
9445.81
7823.49
6637.65
5813.19
5250.48
4873.9
4631.32
4487.02
4415.77
4398.98
4422.23
4473.73
4543.42
4622.32
4702.19
4775.29
4834.24
4871.98
4881.74
4857.01
4791.66
4679.91
4516.47
4296.59
4016.13
3671.72
3260.8
2781.74
2233.9
1617.78
934.963
188.25
-618.415
-1479.98
-2390.38
-3342.79
-4329.85
-5344.13
-6378.74
-7428.21
-8489.69
-9564.87
-10662.8
-11803.9
-13026.6
-14394.5
-15997
-17901.6
-19858.1
13083.7
11197.8
9466.23
8166.42
7241.72
6599.66
6165.57
5885.45
5720.77
5643.33
5631.68
5668.75
5740.33
5834.02
5938.66
6043.91
6139.96
6217.47
6267.42
6281.15
6250.35
6167.15
6024.16
5814.56
5532.27
5171.98
4729.36
4201.11
3585.17
2880.74
2088.46
1210.44
250.304
-786.798
-1894.27
-3064.19
-4287.56
-5554.67
-6855.56
-8180.77
-9522.28
-10875
-12238.5
-13620.1
-15038.8
-16530.9
-18155.4
-19991.9
-22086.9
-24156.4
14637.4
12713.9
10921.4
9553.78
8566.33
7873.14
7402.02
7099.09
6924.64
6848.72
6847.93
6903.14
6998.08
7118.35
7250.78
7383.05
7503.42
7600.61
7663.72
7682.23
7646.06
7545.6
7371.86
7116.54
6772.19
6332.37
5791.76
5146.39
4393.71
3532.81
2564.49
1491.37
317.974
-949.316
-2302.3
-3731.11
-5224.51
-6770.24
-8355.61
-9968.27
-11597.3
-13234.6
-14876.8
-16528.5
-18205.2
-19939.2
-21783.6
-23808.3
-26045.9
-28194.1
15998.8
14055.3
12229.2
10822.7
9798.44
9075.46
8584.04
8271.09
8096.59
8029.58
8045.29
8122.99
8244.7
8394.24
8556.63
8717.7
8863.85
8981.94
9059.25
9083.44
9042.68
8925.65
8721.78
8421.27
8015.36
7496.43
6858.24
6096.1
5207.03
4189.99
3045.96
1778.12
391.902
-1105.03
-2702.82
-4389.58
-6151.69
-7974.25
-9841.62
-11738.3
-13650.1
-15565.5
-17477.8
-19387.4
-21306.2
-23261.4
-25300.1
-27484.7
-29837.8
-32047.3
17217.4
15263.5
13419.6
11992.6
10949.4
10212.4
9713.85
9401.52
9235.4
9183.96
9221.4
9325.74
9477.52
9658.99
9853.49
10045.1
10218.5
10358.8
10451.4
10482.2
10437.7
10304.9
10071.6
9726.54
9259.7
8662.3
7927.14
7048.84
6024
4851.46
3532.41
2070.61
472.414
-1253.18
-3094.61
-5037.88
-7066.95
-9164.08
-11310.6
-13487.7
-15677.5
-17864.8
-20039
-22196.4
-24344.5
-26505.5
-28721.1
-31047.2
-33500
-35761.4
18324.9
16366.3
14514.5
13079
12029.2
11289.6
10794
10490.8
10340.1
10310
10373.8
10508.5
10693.4
10909.2
11137.9
11361.7
11563.8
11727.4
11836.3
11874.8
11827.4
11679.6
11417.7
11029
10502
9826.99
8995.75
8002.23
6842.63
5515.66
4022.77
2368.27
559.507
-1393.18
-3476.45
-5674.18
-7967.79
-10336.7
-12758.9
-15212.3
-17675.2
-20128.4
-22557.2
-24953.8
-27320.8
-29676
-32056
-34511.7
-37054.4
-39361.8
19342.8
17383
15529.6
14093.3
13045.4
12311.6
11826.5
11539.1
11409.6
11405.5
11499.6
11667.9
11888.5
12140.9
12405.4
12663
12894.9
13083
13209.3
13256.2
13206.8
13045
12755.4
12323.9
11737.9
10986.4
10060.3
8952.92
7660.03
6180.26
4515.28
2670.04
652.841
-1524.58
-3847.1
-6296.42
-8851.37
-11488.4
-14182.4
-16907.3
-19638
-22351.1
-25027.7
-27655.5
-30233
-32773.2
-35308.4
-37885.3
-40511.3
-42861.2
20285.4
18326.5
16475.5
15043.9
14003.8
13281.6
12812.7
12546.2
12442.2
12468
12595.6
12800.1
13058.5
13349.1
13650.9
13943.3
14206.2
14419.7
14564.1
14620.3
14569.8
14394.8
14078.6
13605.5
12961.8
12135.2
11115.9
9896.52
8472.4
6842.11
5007.58
2974.36
751.756
-1647.1
-4205.3
-6902.32
-9714.39
-12615
-15575.7
-18566.9
-21559.5
-24526.1
-27443.5
-30295.4
-33075.7
-35793.3
-38476.5
-41168.1
-43872.6
-46262.4
21161.9
19205.4
17359.5
15936.2
14907.9
14201.6
13752.9
13511.1
13435.9
13494.3
13657.6
13900.2
14198
14528.1
14868.2
15196.4
15490.9
15730.3
15893.5
15959.8
15909
15721.8
15380
14866.7
14166.8
13267
12156.7
10827.7
9275.08
7497.34
5496.67
3279.21
855.281
-1760.59
-4549.7
-7489.32
-10553.1
-13711.5
-16932.8
-20183.9
-23431.6
-26644.8
-29796
-32864.5
-35840.4
-38728.5
-41553.3
-44354.5
-47133.6
-49561.1
21978.4
20025.3
18186.2
16773.5
15759.7
15072.2
14646.5
14431.8
14387.7
14480.6
14681.2
14963.1
15301.2
15671.5
16050.4
16414.7
16741.2
17007
17189.5
17266.3
17215.9
17017.5
16651.4
16099.4
15345.2
14374.5
13175.7
11740.2
10062.6
8141.38
5978.97
3582.13
962.174
-1865
-4878.89
-8054.6
-11363.2
-14772.3
-18246.8
-21750
-25245.2
-28697
-32074
-35351.6
-38515.7
-41567.5
-44527.9
-47433.7
-50284
-52747.6
22738.2
20789.1
18958
17557.3
16559.8
15892.8
15491.7
15305.7
15294
15422.4
15661.1
15982.8
16361.4
16772
17189.7
17590.1
17948.5
18240.7
18442.6
18530.5
18481.1
18272.4
17883.3
17294.4
16488.1
15449.1
14165.2
12627
10828.8
8769.03
6450.41
3880.29
1070.95
-1960.36
-5191.39
-8595.12
-12140.1
-15791.1
-19509.8
-23256.1
-26989.5
-30670.8
-34264.9
-37743
-41087.4
-44295.7
-47385.7
-50391.2
-53309.3
-55807.2
23443
21498.1
19675.6
18287.8
17307.4
16661.8
16286.2
16129.5
16150.5
16314.7
16591.4
16952.7
17371.5
17821.9
18277.9
18713.7
19103.6
19421.9
19643.1
19742.1
19694.4
19476.4
19065.7
18441.8
17585.9
16482
15116.7
13480.4
11566.9
9374.63
6906.53
4170.56
1179.94
-2046.77
-5485.65
-9107.6
-12878.8
-16761.1
-20713.3
-24691.8
-28652.7
-32553.2
-36354.1
-40023.2
-43539.2
-46896.3
-50109.3
-53209.5
-56191.9
-58722.3
24092.8
22152.3
20338.6
18963.8
18000.9
17376.8
17026.7
16899.2
16952.6
17151.9
17466
17865.9
18323.9
18812.9
19306
19776.3
20196.7
20540.4
20780.5
20890.6
20844.9
20618.5
20187.8
19531.1
18628.7
17463.4
16021.4
14292.3
12269.8
9952.13
7342.55
4449.58
1287.33
-2124.4
-5760.06
-9588.61
-13573.9
-17675.1
-21848.2
-26046.4
-30222.3
-34329.7
-38325.9
-42175.3
-45853.1
-49350.4
-52679.2
-55868.5
-58911.3
-61472.3
24686.7
22750.6
20945.5
19583.7
18637.8
18034.8
17709.6
17610.4
17695.2
17928.4
18278.3
18715.2
19210.6
19736.6
20265.1
20768.2
21217.8
21585.8
21844.1
21965
21921.6
21687.7
21238.7
20551.6
19605.9
18383.6
16870
15054.4
12930
10495.3
7753.53
4713.86
1391.2
-2193.43
-6013.01
-10034.6
-14219.9
-18525.8
-22905.2
-27308.5
-31685.1
-35985.6
-40164.1
-44181.5
-48010
-51637.9
-55074.5
-58346.7
-61445.8
-64035.2
25223
23291
21494.3
20144.8
19215.3
18632.4
18330.8
18258.4
18372.8
18638
19021.5
19493.2
20023.8
20584.3
21146.1
21679.9
22156.8
22547.6
22823
22954.2
22913.3
22672.8
22207.2
21492.5
20507.1
19232.5
17653.2
15758.1
13540.2
10997.8
8134.49
4959.86
1489.65
-2254.08
-6242.87
-10442.1
-14811.5
-19305.5
-23874.6
-28466.5
-33027.8
-37505.7
-41851.6
-46023.3
-49990.3
-53738
-57273.6
-60621.9
-63772.6
-66388
25699.6
23771.5
21982.5
20644.5
19730.2
19165.8
18886.1
18838.4
18980.2
19274.7
19689.3
20192.9
20755.6
21347.9
21939.9
22502
23003.9
23415.5
23706.7
23847.6
23809.1
23563
23082.6
22343.1
21322.2
20000.4
18362
16395.3
14093
11453.5
8480.52
5184.13
1580.75
-2306.55
-6448.07
-10807.6
-15343.1
-20006.9
-24747.3
-29509.4
-34237.1
-38875.1
-43371.9
-47682.8
-51774.5
-55630.3
-59255
-62671.8
-65868.9
-68507.9
26114.1
24189.5
22407.4
21079.8
20179.1
19631.5
19371.3
19345.9
19512.1
19832.9
20275.1
20807.2
21398.7
22019.2
22638.3
23225.4
23749.7
24180
24485.3
24634.9
24598.7
24347.8
23854.5
23093.4
22041.2
20678.2
18987.8
16958
14581.5
11856.5
8786.98
5383.35
1662.69
-2351.07
-6627.11
-11127.9
-15809.7
-20623
-25514.2
-30426.2
-35300.4
-40079.4
-44709.1
-49142.5
-53344
-57294.8
-60998
-64475
-67713
-70372.6
26464
24542.5
22766.4
21447.9
20558.9
20025.8
19782.6
19776.4
19963.7
20307.2
20773.3
21329.9
21946.1
22590.9
23233.4
23842.1
24385.6
24832
25149.5
25306.7
25272.7
25017.8
24513.7
23734.1
22655.5
21257.2
19522.6
17439.1
14999.3
12201.4
9049.58
5554.5
1733.8
-2387.84
-6778.62
-11399.9
-16206.4
-21147.4
-26167.2
-31207
-36206.3
-41105.5
-45848.5
-50386.3
-54681.3
-58713.2
-62483.2
-66011.6
-69284.5
-71961.6
26747.1
24828.1
23057.1
21745.9
20866.7
20345.6
20116.4
20125.9
20330.6
20692.9
21178.6
21755.4
22391.9
23056.7
23718.3