/*--------------------------------*- C++ -*----------------------------------*\
| =========                 |                                                 |
| \\      /  F ield         | OpenFOAM: The Open Source CFD Toolbox           |
|  \\    /   O peration     | Version:  5.x                                   |
|   \\  /    A nd           | Web:      www.OpenFOAM.org                      |
|    \\/     M anipulation  |                                                 |
\*---------------------------------------------------------------------------*/
FoamFile
{
    version     2.0;
    format      ascii;
    class       volScalarField;
    location    "0.6";
    object      T;
}
// * * * * * * * * * * * * * * * * * * * * * * * * * * * * * * * * * * * * * //

dimensions      [0 0 0 1 0 0 0];

internalField   nonuniform List<scalar> 
25000
(
300.723
301.34
301.698
301.95
302.149
302.318
302.469
302.609
302.741
302.87
302.997
303.123
303.25
303.379
303.51
303.643
303.778
303.915
304.054
304.193
304.331
304.469
304.604
304.735
304.861
304.98
305.089
305.188
305.275
305.346
305.401
305.438
305.454
305.448
305.418
305.363
305.281
305.171
305.033
304.865
304.667
304.439
304.179
303.886
303.559
303.194
302.781
302.301
301.706
300.845
301.34
302.838
303.819
304.546
305.132
305.634
306.083
306.5
306.896
307.281
307.661
308.04
308.421
308.808
309.2
309.599
310.005
310.416
310.831
311.248
311.665
312.078
312.483
312.877
313.254
313.61
313.939
314.236
314.495
314.711
314.876
314.986
315.034
315.016
314.927
314.761
314.516
314.187
313.773
313.27
312.676
311.991
311.212
310.336
309.358
308.267
307.039
305.631
303.937
301.708
301.696
303.816
305.308
306.457
307.403
308.223
308.963
309.651
310.308
310.947
311.578
312.208
312.843
313.487
314.141
314.806
315.482
316.167
316.859
317.555
318.25
318.938
319.614
320.271
320.9
321.494
322.043
322.539
322.971
323.33
323.606
323.79
323.871
323.842
323.693
323.418
323.01
322.463
321.772
320.935
319.947
318.807
317.512
316.058
314.436
312.632
310.616
308.329
305.649
302.311
301.945
304.535
306.445
307.964
309.24
310.36
311.378
312.33
313.242
314.131
315.011
315.891
316.779
317.678
318.593
319.524
320.47
321.43
322.399
323.374
324.348
325.312
326.26
327.18
328.062
328.894
329.665
330.36
330.966
331.47
331.857
332.115
332.23
332.19
331.983
331.599
331.028
330.263
329.298
328.128
326.748
325.157
323.35
321.324
319.07
316.571
313.795
310.681
307.104
302.807
302.139
305.105
307.368
309.212
310.788
312.188
313.472
314.679
315.84
316.975
318.1
319.227
320.366
321.521
322.695
323.892
325.108
326.342
327.589
328.843
330.096
331.338
332.557
333.741
334.877
335.949
336.941
337.836
338.617
339.267
339.767
340.1
340.25
340.2
339.935
339.443
338.711
337.73
336.492
334.991
333.222
331.183
328.87
326.28
323.405
320.229
316.722
312.823
308.415
303.249
302.3
305.583
308.151
310.284
312.134
313.796
315.331
316.784
318.186
319.561
320.928
322.3
323.687
325.096
326.53
327.99
329.477
330.985
332.51
334.044
335.576
337.095
338.587
340.037
341.427
342.739
343.954
345.05
346.007
346.803
347.417
347.827
348.012
347.953
347.632
347.033
346.142
344.947
343.438
341.608
339.453
336.971
334.158
331.012
327.528
323.693
319.478
314.829
309.635
303.658
302.439
305.998
308.835
311.229
313.331
315.237
317.011
318.699
320.336
321.946
323.55
325.163
326.797
328.457
330.148
331.873
333.628
335.41
337.213
339.026
340.838
342.634
344.399
346.115
347.76
349.313
350.751
352.05
353.184
354.128
354.856
355.343
355.565
355.499
355.123
354.419
353.37
351.962
350.185
348.03
345.494
342.573
339.267
335.575
331.494
327.014
322.113
316.741
310.794
304.047
302.563
306.367
309.447
312.078
314.414
316.549
318.55
320.464
322.327
324.166
326.003
327.854
329.73
331.639
333.587
335.573
337.596
339.651
341.73
343.822
345.913
347.987
350.025
352.006
353.907
355.701
357.363
358.864
360.176
361.268
362.112
362.678
362.938
362.866
362.437
361.63
360.425
358.807
356.765
354.289
351.375
348.021
344.229
340
335.333
330.224
324.654
318.581
311.909
304.421
302.674
306.701
310.002
312.852
315.405
317.757
319.974
322.104
324.186
326.248
328.312
330.396
332.511
334.667
336.867
339.113
341.402
343.728
346.082
348.452
350.821
353.172
355.482
357.728
359.883
361.918
363.804
365.508
366.997
368.239
369.198
369.844
370.143
370.067
369.586
368.678
367.32
365.496
363.192
360.399
357.113
353.334
349.064
344.306
339.066
333.341
327.119
320.365
312.989
304.782
302.777
307.008
310.512
313.566
316.322
318.878
321.3
323.638
325.931
328.209
330.495
332.807
335.157
337.555
340.005
342.507
345.059
347.653
350.28
352.925
355.57
358.195
360.776
363.285
365.693
367.969
370.077
371.983
373.65
375.04
376.116
376.842
377.181
377.102
376.572
375.565
374.058
372.031
369.469
366.365
362.714
358.517
353.777
348.502
342.7
336.373
329.516
322.098
314.037
305.133
302.871
307.291
310.985
314.228
317.175
319.924
322.541
325.078
327.575
330.062
332.563
335.097
337.677
340.312
343.007
345.761
348.572
351.431
354.327
357.243
360.161
363.057
365.905
368.675
371.334
373.847
376.177
378.283
380.126
381.664
382.856
383.662
384.043
383.962
383.385
382.282
380.629
378.403
375.59
372.182
368.173
363.566
358.367
352.587
346.236
339.323
331.846
323.781
315.055
305.473
302.959
307.555
311.424
314.845
317.972
320.902
323.705
326.433
329.125
331.813
334.523
337.272
340.076
342.942
345.876
348.877
351.941
355.06
358.219
361.402
364.588
367.751
370.862
373.888
376.794
379.541
382.088
384.392
386.409
388.093
389.401
390.287
390.709
390.627
390.005
388.811
387.015
384.597
381.539
377.833
373.476
368.47
362.825
356.552
349.668
342.184
334.105
325.414
316.042
305.804
303.04
307.8
311.834
315.421
318.716
321.818
324.797
327.706
330.585
333.466
336.376
339.334
342.353
345.444
348.61
351.851
355.162
358.532
361.949
365.392
368.839
372.262
375.63
378.907
382.054
385.03
387.79
390.288
392.475
394.303
395.724
396.689
397.153
397.072
396.408
395.124
393.192
390.587
387.292
383.299
378.604
373.212
367.134
360.385
352.984
344.948
336.288
326.991
316.996
306.123
303.116
308.027
312.215
315.957
319.41
322.674
325.819
328.899
331.956
335.022
338.123
341.28
344.507
347.814
351.203
354.675
358.224
361.838
365.503
369.198
372.898
376.573
380.189
383.709
387.091
390.289
393.256
395.941
398.294
400.262
401.793
402.836
403.342
403.263
402.558
401.19
399.127
396.343
392.821
388.551
383.532
377.768
371.273
364.066
356.169
347.603
338.384
328.505
317.911
306.429
303.186
308.239
312.568
316.455
320.056
323.471
326.772
330.013
333.237
336.477
339.761
343.107
346.532
350.044
353.647
357.34
361.116
364.964
368.867
372.802
376.745
380.661
384.517
388.27
391.876
395.287
398.453
401.319
403.832
405.935
407.573
408.691
409.237
409.161
408.419
406.971
404.783
401.829
398.09
393.557
388.228
382.11
375.218
367.574
359.204
350.133
340.381
329.947
318.783
306.721
303.251
308.433
312.894
316.915
320.652
324.207
327.653
331.045
334.426
337.83
341.284
344.809
348.419
352.125
355.93
359.831
363.823
367.891
372.02
376.184
380.356
384.502
388.584
392.558
396.378
399.992
403.346
406.385
409.05
411.281
413.021
414.211
414.796
414.724
413.948
412.425
410.12
407.005
403.062
398.28
392.659
386.207
378.94
370.884
362.067
352.519
342.265
331.308
319.605
306.996
303.31
308.611
313.193
317.335
321.197
324.882
328.461
331.992
335.518
339.073
342.686
346.376
350.16
354.047
358.039
362.135
366.328
370.603
374.942
379.32
383.707
388.068
392.362
396.543
400.563
404.367
407.899
411.099
413.906
416.258
418.094
419.352
419.975
419.907
419.099
417.506
415.093
411.829
407.696
402.682
396.789
390.025
382.409
373.969
364.735
354.743
344.02
332.576
320.372
307.252
303.364
308.772
313.462
317.715
321.691
325.492
329.193
332.85
336.508
340.202
343.959
347.802
351.744
355.797
359.961
364.237
368.614
373.079
377.612
382.187
386.772
391.33
395.819
400.192
404.396
408.375
412.071
415.42
418.359
420.823
422.747
424.069
424.726
424.663
423.826
422.17
419.657
416.257
411.949
406.724
400.58
393.53
385.594
376.801
367.185
356.785
345.632
333.74
321.075
307.488
303.411
308.915
313.701
318.053
322.129
326.035
329.845
333.615
337.391
341.209
345.096
349.075
353.161
357.362
361.683
366.119
370.663
375.3
380.008
384.76
389.524
394.261
398.927
403.472
407.843
411.98
415.824
419.308
422.366
424.932
426.937
428.316
429.005
428.946
428.084
426.372
423.769
420.246
415.781
410.364
403.996
396.689
388.463
379.352
369.392
358.624
347.084
334.788
321.709
307.7
303.453
309.039
313.909
318.346
322.511
326.508
330.412
334.282
338.162
342.088
346.089
350.188
354.399
358.731
363.189
367.767
372.458
377.245
382.107
387.016
391.938
396.832
401.654
406.351
410.869
415.147
419.121
422.724
425.888
428.543
430.619
432.049
432.767
432.712
431.828
430.066
427.386
423.754
419.152
413.567
407.001
399.467
390.987
381.596
371.334
360.242
348.361
335.711
322.267
307.886
303.487
309.144
314.085
318.594
322.834
326.908
330.892
334.846
338.813
342.832
346.93
351.131
355.449
359.893
364.466
369.166
373.982
378.898
383.891
388.934
393.99
399.019
403.973
408.801
413.444
417.841
421.927
425.632
428.886
431.617
433.755
435.228
435.971
435.92
435.018
433.214
430.467
426.744
422.023
416.295
409.561
401.834
393.138
383.509
372.988
361.621
349.449
336.497
322.742
308.045
303.516
309.229
314.227
318.795
323.095
327.231
331.281
335.302
339.341
343.435
347.613
351.896
356.3
360.836
365.504
370.302
375.22
380.241
385.342
390.493
395.659
400.798
405.861
410.794
415.54
420.035
424.212
428
431.328
434.122
436.309
437.819
438.581
438.534
437.616
435.778
432.977
429.179
424.364
418.519
411.647
403.763
394.891
385.068
374.336
362.745
350.336
337.138
323.129
308.175
303.537
309.293
314.335
318.947
323.293
327.477
331.576
335.649
339.742
343.892
348.13
352.476
356.947
361.551
366.292
371.165
376.16
381.261
386.444
391.678
396.928
402.15
407.295
412.31
417.134
421.703
425.949
429.801
433.185
436.026
438.252
439.789
440.567
440.522
439.593
437.73
434.887
431.033
426.144
420.211
413.235
405.231
396.225
386.254
375.362
363.6
351.011
337.625
323.424
308.273
303.551
309.336
314.407
319.049
323.425
327.641
331.773
335.881
340.011
344.2
348.477
352.866
357.381
362.032
366.821
371.745
376.793
381.948
387.185
392.475
397.781
403.06
408.261
413.33
418.207
422.826
427.119
431.013
434.435
437.309
439.561
441.116
441.905
441.861
440.925
439.044
436.174
432.281
427.344
421.351
414.304
406.22
397.123
387.053
376.054
364.176
351.466
337.954
323.622
308.34
303.558
309.358
314.443
319.1
323.492
327.724
331.873
335.998
340.146
344.354
348.652
353.062
357.599
362.274
367.088
372.037
377.111
382.293
387.558
392.876
398.211
403.517
408.747
413.843
418.747
423.391
427.708
431.624
435.064
437.955
440.219
441.784
442.578
442.535
441.595
439.705
436.821
432.91
427.947
421.924
414.843
406.717
397.575
387.455
376.401
364.466
351.695
338.119
323.722
308.373
303.558
309.358
314.443
319.1
323.492
327.724
331.873
335.998
340.146
344.354
348.652
353.062
357.599
362.274
367.088
372.037
377.111
382.293
387.558
392.876
398.211
403.517
408.747
413.843
418.747
423.391
427.708
431.624
435.064
437.955
440.219
441.784
442.578
442.535
441.595
439.705
436.821
432.91
427.947
421.924
414.843
406.717
397.575
387.455
376.401
364.466
351.695
338.119
323.722
308.373
303.551
309.336
314.407
319.049
323.425
327.641
331.773
335.881
340.011
344.2
348.477
352.866
357.381
362.032
366.821
371.745
376.793
381.948
387.185
392.475
397.781
403.06
408.261
413.33
418.207
422.826
427.119
431.014
434.435
437.309
439.561
441.116
441.905
441.861
440.925
439.044
436.174
432.281
427.344
421.351
414.304
406.22
397.123
387.053
376.053
364.176
351.466
337.953
323.622
308.34
303.537
309.293
314.335
318.947
323.293
327.477
331.576
335.649
339.742
343.892
348.13
352.476
356.947
361.551
366.292
371.165
376.161
381.261
386.444
391.678
396.928
402.15
407.295
412.31
417.134
421.703
425.949
429.801
433.185
436.027
438.252
439.789
440.567
440.522
439.593
437.73
434.887
431.033
426.144
420.211
413.235
405.231
396.225
386.253
375.362
363.6
351.011
337.625
323.424
308.273
303.516
309.229
314.227
318.795
323.095
327.231
331.281
335.303
339.342
343.435
347.613
351.896
356.3
360.836
365.504
370.302
375.22
380.241
385.342
390.493
395.659
400.798
405.861
410.795
415.54
420.035
424.212
428
431.328
434.122
436.309
437.819
438.582
438.534
437.616
435.778
432.977
429.179
424.363
418.519
411.647
403.763
394.891
385.067
374.336
362.745
350.336
337.137
323.129
308.175
303.487
309.144
314.085
318.594
322.834
326.908
330.892
334.846
338.813
342.832
346.93
351.131
355.449
359.893
364.467
369.166
373.982
378.898
383.892
388.934
393.99
399.019
403.973
408.801
413.444
417.842
421.927
425.632
428.886
431.617
433.755
435.229
435.971
435.92
435.018
433.214
430.467
426.744
422.023
416.295
409.561
401.834
393.138
383.509
372.988
361.621
349.449
336.497
322.742
308.045
303.453
309.039
313.909
318.346
322.511
326.508
330.413
334.282
338.162
342.088
346.089
350.188
354.399
358.732
363.189
367.767
372.458
377.245
382.108
387.016
391.938
396.833
401.654
406.352
410.869
415.147
419.121
422.724
425.888
428.543
430.619
432.049
432.767
432.712
431.828
430.066
427.386
423.754
419.152
413.567
407.001
399.466
390.987
381.596
371.333
360.242
348.361
335.711
322.267
307.886
303.411
308.915
313.701
318.053
322.129
326.035
329.845
333.615
337.391
341.209
345.096
349.075
353.161
357.362
361.683
366.119
370.663
375.3
380.008
384.76
389.524
394.261
398.927
403.472
407.843
411.981
415.824
419.308
422.366
424.932
426.937
428.316
429.005
428.946
428.084
426.372
423.769
420.246
415.781
410.364
403.996
396.688
388.463
379.352
369.392
358.624
347.083
334.788
321.709
307.7
303.364
308.772
313.462
317.715
321.691
325.492
329.193
332.85
336.508
340.202
343.959
347.802
351.744
355.797
359.962
364.237
368.614
373.079
377.612
382.187
386.772
391.331
395.82
400.192
404.396
408.376
412.071
415.42
418.359
420.823
422.748
424.069
424.727
424.663
423.826
422.17
419.657
416.257
411.949
406.723
400.58
393.53
385.594
376.8
367.185
356.784
345.631
333.74
321.075
307.488
303.31
308.611
313.193
317.335
321.197
324.882
328.461
331.992
335.518
339.073
342.686
346.376
350.16
354.047
358.039
362.136
366.328
370.603
374.942
379.32
383.708
388.068
392.362
396.543
400.563
404.367
407.899
411.099
413.906
416.259
418.094
419.353
419.975
419.907
419.099
417.506
415.093
411.829
407.695
402.682
396.789
390.025
382.409
373.968
364.735
354.743
344.02
332.575
320.371
307.252
303.251
308.433
312.894
316.915
320.652
324.207
327.653
331.045
334.426
337.83
341.284
344.809
348.419
352.125
355.93
359.831
363.823
367.892
372.02
376.184
380.356
384.503
388.584
392.558
396.378
399.992
403.347
406.385
409.05
411.282
413.021
414.211
414.796
414.725
413.948
412.425
410.119
407.005
403.062
398.28
392.659
386.206
378.94
370.884
362.067
352.519
342.264
331.308
319.605
306.996
303.186
308.239
312.568
316.455
320.056
323.471
326.772
330.013
333.237
336.477
339.761
343.107
346.532
350.044
353.647
357.34
361.116
364.964
368.867
372.803
376.745
380.662
384.517
388.27
391.876
395.287
398.453
401.32
403.832
405.935
407.573
408.691
409.237
409.161
408.419
406.971
404.783
401.829
398.09
393.557
388.228
382.11
375.218
367.574
359.203
350.132
340.381
329.947
318.783
306.721
303.116
308.027
312.215
315.957
319.41
322.674
325.819
328.899
331.956
335.022
338.123
341.28
344.508
347.814
351.203
354.675
358.224
361.839
365.503
369.198
372.898
376.573
380.19
383.709
387.091
390.289
393.256
395.941
398.295
400.263
401.794
402.836
403.342
403.263
402.559
401.19
399.127
396.343
392.821
388.551
383.531
377.768
371.273
364.066
356.168
347.603
338.384
328.505
317.911
306.429
303.04
307.8
311.834
315.421
318.716
321.818
324.797
327.706
330.585
333.466
336.376
339.334
342.353
345.444
348.61
351.851
355.162
358.532
361.949
365.392
368.839
372.262
375.63
378.907
382.054
385.03
387.79
390.288
392.475
394.303
395.724
396.689
397.153
397.072
396.408
395.124
393.192
390.587
387.292
383.299
378.604
373.212
367.133
360.384
352.983
344.948
336.288
326.991
316.995
306.123
302.959
307.555
311.424
314.845
317.972
320.902
323.705
326.433
329.125
331.813
334.523
337.272
340.076
342.942
345.876
348.877
351.941
355.06
358.219
361.402
364.588
367.751
370.862
373.888
376.794
379.541
382.088
384.392
386.409
388.094
389.401
390.287
390.709
390.627
390.005
388.811
387.015
384.596
381.539
377.833
373.476
368.47
362.824
356.552
349.667
342.184
334.105
325.414
316.042
305.804
302.871
307.291
310.985
314.228
317.175
319.924
322.541
325.078
327.575
330.062
332.563
335.097
337.677
340.312
343.007
345.761
348.572
351.431
354.327
357.243
360.161
363.057
365.905
368.675
371.335
373.848
376.177
378.283
380.126
381.664
382.856
383.662
384.043
383.962
383.385
382.282
380.629
378.403
375.59
372.181
368.173
363.565
358.367
352.587
346.236
339.322
331.845
323.781
315.055
305.473
302.777
307.008
310.512
313.566
316.322
318.878
321.3
323.638
325.931
328.209
330.495
332.807
335.157
337.555
340.005
342.507
345.059
347.654
350.28
352.925
355.57
358.195
360.776
363.285
365.694
367.969
370.078
371.984
373.65
375.04
376.116
376.842
377.181
377.102
376.572
375.565
374.058
372.03
369.469
366.365
362.714
358.516
353.777
348.502
342.7
336.373
329.516
322.097
314.037
305.133
302.674
306.701
310.002
312.852
315.405
317.757
319.974
322.104
324.186
326.248
328.312
330.396
332.511
334.667
336.867
339.113
341.402
343.728
346.082
348.452
350.821
353.172
355.482
357.728
359.883
361.919
363.804
365.508
366.998
368.239
369.199
369.844
370.143
370.067
369.586
368.678
367.32
365.496
363.192
360.399
357.113
353.334
349.063
344.306
339.066
333.341
327.119
320.365
312.989
304.782
302.563
306.367
309.446
312.078
314.414
316.549
318.55
320.464
322.327
324.166
326.003
327.854
329.73
331.639
333.587
335.573
337.596
339.651
341.73
343.822
345.913
347.987
350.025
352.006
353.907
355.701
357.363
358.865
360.176
361.268
362.112
362.678
362.938
362.866
362.437
361.63
360.425
358.807
356.765
354.289
351.375
348.021
344.229
340
335.333
330.224
324.654
318.581
311.909
304.421
302.439
305.998
308.835
311.229
313.331
315.237
317.011
318.699
320.336
321.946
323.55
325.163
326.797
328.457
330.148
331.873
333.628
335.411
337.213
339.026
340.838
342.634
344.4
346.115
347.76
349.313
350.751
352.05
353.184
354.128
354.856
355.343
355.565
355.499
355.123
354.419
353.37
351.962
350.185
348.03
345.494
342.573
339.267
335.575
331.493
327.014
322.112
316.741
310.794
304.047
302.3
305.583
308.151
310.284
312.134
313.796
315.331
316.784
318.186
319.561
320.928
322.3
323.687
325.096
326.53
327.99
329.477
330.985
332.51
334.044
335.576
337.095
338.587
340.037
341.427
342.739
343.954
345.05
346.007
346.803
347.417
347.827
348.012
347.953
347.632
347.033
346.142
344.947
343.438
341.608
339.453
336.971
334.158
331.012
327.528
323.693
319.478
314.829
309.635
303.658
302.139
305.105
307.368
309.212
310.788
312.188
313.472
314.679
315.84
316.975
318.1
319.227
320.366
321.521
322.695
323.892
325.108
326.342
327.589
328.843
330.096
331.338
332.557
333.742
334.877
335.949
336.941
337.836
338.618
339.267
339.767
340.1
340.25
340.2
339.935
339.443
338.711
337.73
336.492
334.991
333.222
331.183
328.87
326.28
323.405
320.229
316.721
312.823
308.415
303.249
301.945
304.535
306.445
307.964
309.24
310.36
311.378
312.33
313.242
314.131
315.011
315.891
316.779
317.678
318.593
319.524
320.47
321.43
322.4
323.374
324.348
325.312
326.26
327.18
328.062
328.894
329.665
330.36
330.966
331.47
331.857
332.115
332.23
332.19
331.983
331.599
331.028
330.263
329.298
328.128
326.748
325.157
323.35
321.324
319.069
316.57
313.795
310.681
307.104
302.807
301.696
303.816
305.308
306.457
307.403
308.223
308.963
309.651
310.308
310.947
311.578
312.208
312.843
313.487
314.141
314.806
315.482
316.167
316.859
317.555
318.25
318.938
319.614
320.271
320.9
321.494
322.044
322.539
322.971
323.33
323.607
323.79
323.871
323.842
323.693
323.418
323.01
322.463
321.772
320.935
319.947
318.807
317.512
316.058
314.436
312.632
310.616
308.329
305.649
302.311
301.34
302.838
303.819
304.546
305.132
305.634
306.083
306.5
306.896
307.281
307.661
308.04
308.421
308.808
309.2
309.599
310.005
310.416
310.831
311.248
311.665
312.078
312.483
312.877
313.254
313.61
313.939
314.236
314.495
314.711
314.876
314.986
315.034
315.016
314.927
314.761
314.516
314.187
313.773
313.269
312.676
311.991
311.212
310.336
309.358
308.266
307.039
305.631
303.937
301.708
300.723
301.34
301.698
301.95
302.149
302.318
302.469
302.609
302.741
302.87
302.997
303.123
303.25
303.379
303.51
303.643
303.778
303.915
304.054
304.193
304.332
304.469
304.604
304.735
304.861
304.98
305.089
305.188
305.275
305.346
305.401
305.438
305.454
305.448
305.418
305.363
305.281
305.171
305.033
304.865
304.667
304.439
304.179
303.886
303.559
303.194
302.781
302.301
301.706
300.845
300.284
300.693
300.989
301.219
301.409
301.574
301.722
301.861
301.993
302.121
302.247
302.374
302.501
302.63
302.761
302.895
303.03
303.167
303.306
303.445
303.585
303.723
303.858
303.989
304.115
304.234
304.344
304.443
304.53
304.602
304.657
304.694
304.71
304.704
304.674
304.619
304.537
304.427
304.288
304.12
303.923
303.694
303.434
303.143
302.818
302.456
302.052
301.594
301.06
300.407
300.692
301.789
302.631
303.301
303.861
304.35
304.793
305.205
305.6
305.984
306.363
306.742
307.124
307.511
307.904
308.304
308.71
309.122
309.538
309.957
310.374
310.788
311.194
311.589
311.967
312.324
312.654
312.952
313.211
313.427
313.593
313.703
313.752
313.734
313.644
313.479
313.233
312.904
312.489
311.985
311.392
310.707
309.929
309.056
308.083
307.003
305.8
304.446
302.891
301.062
300.988
302.627
303.935
305.005
305.913
306.714
307.443
308.126
308.779
309.416
310.047
310.677
311.313
311.957
312.612
313.279
313.956
314.643
315.337
316.034
316.731
317.421
318.099
318.757
319.387
319.983
320.533
321.03
321.463
321.823
322.1
322.284
322.366
322.337
322.188
321.912
321.503
320.955
320.264
319.426
318.438
317.299
316.005
314.555
312.942
311.155
309.174
306.964
304.465
301.604
301.215
303.289
304.993
306.418
307.648
308.744
309.748
310.693
311.601
312.488
313.367
314.248
315.136
316.037
316.954
317.886
318.834
319.796
320.768
321.745
322.721
323.688
324.637
325.56
326.444
327.278
328.05
328.747
329.355
329.86
330.248
330.507
330.622
330.582
330.375
329.99
329.419
328.653
327.687
326.515
325.135
323.544
321.74
319.718
317.474
314.997
312.264
309.239
305.865
302.078
301.399
303.834
305.879
307.621
309.145
310.517
311.785
312.983
314.139
315.272
316.396
317.524
318.664
319.821
320.998
322.196
323.415
324.652
325.902
327.159
328.415
329.659
330.881
332.069
333.207
334.282
335.276
336.173
336.957
337.608
338.109
338.443
338.593
338.543
338.278
337.785
337.053
336.07
334.831
333.328
331.558
329.519
327.208
324.624
321.76
318.608
315.148
311.346
307.151
302.511
301.556
304.299
306.641
308.668
310.463
312.094
313.612
315.055
316.452
317.825
319.191
320.564
321.953
323.363
324.8
326.264
327.753
329.265
330.793
332.33
333.866
335.389
336.884
338.338
339.731
341.046
342.264
343.363
344.323
345.121
345.736
346.146
346.332
346.274
345.953
345.353
344.46
343.263
341.752
339.921
337.765
335.282
332.471
329.331
325.859
322.049
317.884
313.336
308.36
302.917
301.693
304.707
307.315
309.599
311.644
313.518
315.274
316.952
318.582
320.19
321.794
323.408
325.043
326.706
328.401
330.129
331.888
333.674
335.481
337.298
339.114
340.915
342.685
344.404
346.053
347.61
349.052
350.353
351.49
352.436
353.166
353.655
353.877
353.811
353.435
352.73
351.68
350.27
348.49
346.333
343.794
340.873
337.568
333.882
329.813
325.359
320.509
315.239
309.515
303.304
301.815
305.072
307.92
310.44
312.717
314.82
316.802
318.705
320.563
322.4
324.236
326.088
327.967
329.879
331.83
333.821
335.848
337.908
339.992
342.089
344.185
346.264
348.307
350.292
352.197
353.996
355.662
357.167
358.482
359.577
360.422
360.99
361.25
361.178
360.749
359.941
358.734
357.114
355.068
352.59
349.673
346.319
342.527
338.303
333.649
328.565
323.047
317.077
310.628
303.677
301.926
305.404
308.472
311.21
313.704
316.022
318.22
320.339
322.416
324.476
326.54
328.625
330.743
332.902
335.107
337.358
339.652
341.983
344.343
346.718
349.092
351.449
353.764
356.016
358.176
360.216
362.107
363.815
365.308
366.552
367.514
368.161
368.461
368.385
367.904
366.994
365.634
363.807
361.5
358.703
355.415
351.633
347.363
342.61
337.382
331.682
325.511
318.86
311.707
304.038
302.027
305.71
308.981
311.922
314.618
317.14
319.543
321.87
324.158
326.434
328.72
331.034
333.388
335.789
338.244
340.752
343.309
345.91
348.542
351.193
353.845
356.476
359.063
361.578
363.992
366.273
368.387
370.297
371.968
373.361
374.44
375.168
375.508
375.429
374.898
373.89
372.38
370.349
367.784
364.676
361.021
356.821
352.081
346.81
341.019
334.717
327.91
320.594
312.755
304.389
302.122
305.993
309.452
312.583
315.47
318.184
320.782
323.309
325.801
328.286
330.788
333.324
335.908
338.548
341.248
344.008
346.825
349.691
352.593
355.516
358.441
361.344
364.199
366.976
369.641
372.16
374.495
376.607
378.454
379.996
381.191
381.999
382.38
382.299
381.722
380.617
378.961
376.732
373.915
370.501
366.488
361.877
356.678
350.9
344.559
337.67
330.242
322.279
313.775
304.73
302.209
306.256
309.891
313.199
316.266
319.162
321.946
324.664
327.351
330.038
332.749
335.501
338.309
341.18
344.12
347.128
350.199
353.324
356.491
359.681
362.875
366.045
369.163
372.197
375.11
377.864
380.417
382.726
384.748
386.436
387.747
388.635
389.059
388.977
388.354
387.157
385.359
382.936
379.874
376.163
371.8
366.79
361.142
354.872
347.997
340.536
332.505
323.914
314.763
305.061
302.291
306.501
310.301
313.775
317.01
320.079
323.039
325.938
328.812
331.693
334.604
337.565
340.589
343.686
346.858
350.106
353.424
356.802
360.227
363.678
367.133
370.564
373.94
377.225
380.38
383.363
386.13
388.633
390.826
392.658
394.082
395.05
395.515
395.435
394.769
393.483
391.547
388.938
385.638
381.639
376.938
371.541
365.46
358.712
351.319
343.305
334.692
325.494
315.718
305.381
302.367
306.729
310.682
314.312
317.705
320.936
324.062
327.132
330.185
333.25
336.354
339.514
342.747
346.059
349.455
352.935
356.492
360.114
363.788
367.491
371.2
374.884
378.509
382.037
385.427
388.632
391.606
394.298
396.657
398.63
400.165
401.21
401.717
401.639
400.933
399.562
397.495
394.706
391.178
386.902
381.876
376.106
369.607
362.4
354.51
345.965
336.792
327.011
316.636
305.687
302.437
306.94
311.036
314.81
318.351
321.733
325.016
328.248
331.468
334.708
337.994
341.345
344.775
348.293
351.904
355.604
359.389
363.246
367.158
371.103
375.055
378.981
382.845
386.607
390.222
393.642
396.815
399.688
402.207
404.315
405.957
407.078
407.625
407.55
406.806
405.355
403.163
400.204
396.459
391.919
386.582
380.457
373.561
365.916
357.552
348.5
338.793
328.456
317.509
305.98
302.502
307.135
311.363
315.271
318.948
322.471
325.899
329.282
332.659
336.063
339.52
343.049
346.666
350.379
354.191
358.101
362.102
366.18
370.318
374.492
378.674
382.83
386.921
390.905
394.734
398.357
401.719
404.765
407.436
409.673
411.417
412.61
413.197
413.125
412.347
410.821
408.512
405.391
401.442
396.652
391.023
384.563
377.291
369.233
360.421
350.892
340.681
329.82
318.333
306.255
302.561
307.313
311.661
315.692
319.495
323.147
326.709
330.231
333.753
337.309
340.924
344.62
348.41
352.304
356.305
360.41
364.612
368.897
373.247
377.635
382.033
386.404
390.708
394.899
398.928
402.742
406.282
409.49
412.304
414.662
416.502
417.763
418.387
418.319
417.51
415.914
413.496
410.226
406.086
401.064
395.162
388.39
380.768
372.325
363.095
353.121
342.44
331.091
319.102
306.512
302.615
307.474
311.931
316.072
319.989
323.758
327.442
331.091
334.745
338.44
342.201
346.048
349.998
354.058
358.232
362.516
366.904
371.379
375.923
380.508
385.104
389.674
394.173
398.556
402.77
406.759
410.463
413.821
416.767
419.237
421.166
422.49
423.15
423.086
422.248
420.589
418.071
414.665
410.349
405.115
398.962
391.904
383.96
375.163
365.551
355.167
344.056
332.257
319.807
306.748
302.662
307.618
312.171
316.411
320.429
324.303
328.095
331.857
335.63
339.449
343.34
347.325
351.417
355.627
359.957
364.403
368.957
373.605
378.324
383.087
387.863
392.611
397.288
401.844
406.225
410.373
414.225
417.718
420.783
423.355
425.365
426.747
427.438
427.379
426.516
424.8
422.193
418.663
414.19
408.764
402.386
395.069
386.836
377.72
367.763
357.011
345.511
333.309
320.442
306.961
302.704
307.742
312.379
316.705
320.811
324.777
328.664
332.525
336.402
340.33
344.336
348.44
352.658
356.999
361.466
366.055
370.756
375.555
380.428
385.349
390.282
395.188
400.021
404.73
409.259
413.547
417.53
421.142
424.313
426.974
429.056
430.489
431.209
431.154
430.269
428.503
425.817
422.179
417.568
411.974
405.398
397.854
389.366
379.97
369.709
358.632
346.791
334.233
321.001
307.148
302.739
307.847
312.556
316.954
321.135
325.177
329.145
333.09
337.056
341.076
345.178
349.385
353.71
358.163
362.747
367.457
372.284
377.211
382.216
387.271
392.339
397.38
402.346
407.185
411.84
416.248
420.343
424.057
427.318
430.056
432.199
433.676
434.421
434.37
433.466
431.658
428.906
425.176
420.447
414.709
407.964
400.226
391.522
381.887
371.367
360.014
347.882
335.021
321.477
307.307
302.767
307.932
312.698
317.155
321.396
325.502
329.535
333.548
337.585
341.68
345.862
350.152
354.564
359.109
363.787
368.596
373.525
378.557
383.67
388.834
394.012
399.163
404.238
409.184
413.941
418.447
422.633
426.43
429.766
432.567
434.759
436.272
437.037
436.989
436.07
434.229
431.422
427.617
422.792
416.938
410.055
402.16
393.279
383.449
372.719
361.141
348.771
335.663
321.865
307.437
302.788
307.996
312.806
317.307
321.595
325.747
329.83
333.895
337.986
342.139
346.381
350.733
355.212
359.826
364.576
369.461
374.467
379.58
384.775
390.022
395.284
400.518
405.676
410.703
415.538
420.119
424.375
428.235
431.627
434.476
436.707
438.247
439.028
438.983
438.052
436.185
433.337
429.475
424.577
418.634
411.647
403.631
394.615
384.638
373.747
361.998
349.448
336.152
322.161
307.536
302.803
308.04
312.878
317.409
321.728
325.912
330.028
334.128
338.256
342.447
346.729
351.124
355.648
360.308
365.107
370.042
375.101
380.268
385.518
390.821
396.139
401.43
406.644
411.726
416.614
421.244
425.547
429.451
432.881
435.762
438.019
439.578
440.369
440.325
439.387
437.502
434.627
430.726
425.78
419.776
412.719
404.623
395.516
385.439
374.44
362.575