/*--------------------------------*- C++ -*----------------------------------*\
| =========                 |                                                 |
| \\      /  F ield         | OpenFOAM: The Open Source CFD Toolbox           |
|  \\    /   O peration     | Version:  5.x                                   |
|   \\  /    A nd           | Web:      www.OpenFOAM.org                      |
|    \\/     M anipulation  |                                                 |
\*---------------------------------------------------------------------------*/
FoamFile
{
    version     2.0;
    format      ascii;
    class       volScalarField;
    location    "1.3";
    object      gradTx;
}
// * * * * * * * * * * * * * * * * * * * * * * * * * * * * * * * * * * * * * //

dimensions      [0 -1 0 1 0 0 0];

internalField   nonuniform List<scalar> 
25000
(
5306.82
2583.81
1660.9
1252.41
1029.31
888.59
790.799
717.998
660.868
614.06
574.255
539.265
507.566
478.046
449.865
422.362
395.006
367.359
339.056
309.793
279.311
247.4
213.887
178.635
141.546
102.552
61.6166
18.7342
-26.0759
-72.7715
-121.293
-171.568
-223.524
-277.094
-332.235
-388.946
-447.3
-507.48
-569.846
-635.023
-704.06
-778.685
-861.776
-958.272
-1077.12
-1235.92
-1473.85
-1893.67
-2824.23
-5551.09
10890.5
6632.06
4679.35
3652.67
3042.23
2641.55
2357.63
2144.05
1975.39
1836.64
1718.33
1614.12
1519.57
1431.43
1347.21
1264.97
1183.13
1100.39
1015.66
928.037
836.755
741.181
640.8
535.208
424.107
307.297
184.672
56.2146
-78.015
-217.889
-363.224
-513.806
-669.407
-829.824
-994.918
-1164.68
-1339.3
-1519.32
-1705.75
-1900.41
-2106.32
-2328.41
-2574.86
-2859.44
-3206.45
-3661.31
-4316.17
-5376.79
-7352.43
-11622.5
14517.8
9744.4
7275.33
5849.83
4947.37
4331.21
3883.77
3541.87
3269.09
3043.08
2849.38
2678.14
2522.33
2376.78
2237.48
2101.29
1965.63
1828.38
1687.76
1542.28
1390.68
1231.92
1065.15
889.699
705.083
510.973
307.198
93.733
-129.317
-361.733
-603.205
-853.362
-1111.82
-1378.21
-1652.29
-1934
-2223.61
-2521.91
-2830.48
-3152.12
-3491.45
-3856.03
-4258.15
-4718.09
-5270.43
-5976.68
-6952.98
-8434.92
-10942.1
-15734.7
17216
12236.7
9501.81
7828.64
6718.77
5934.44
5350.76
4896.97
4530.4
4223.95
3959.54
3724.61
3510.03
3308.97
3116.12
2927.24
2738.84
2548.04
2352.41
2149.89
1938.77
1717.61
1485.23
1240.72
983.419
712.865
428.834
131.3
-179.58
-503.486
-839.971
-1188.5
-1548.5
-1919.45
-2300.92
-2692.79
-3095.31
-3509.44
-3937.12
-4381.83
-4849.38
-5349.14
-5896.11
-6514.57
-7244.56
-8154.55
-9367.43
-11119.3
-13907.4
-18913.6
19393.6
14317.5
11436.8
9608.22
8353.45
7441.52
6747.79
6199.24
5750.4
5371.44
5041.98
4747.51
4477.31
4223.23
3978.83
3738.92
3499.23
3256.18
3006.73
2748.31
2478.76
2196.27
1899.37
1586.92
1258.07
912.257
549.209
168.908
-228.427
-642.367
-1072.32
-1517.56
-1977.32
-2450.86
-2937.59
-3437.19
-3949.86
-4476.55
-5019.41
-5582.29
-6171.66
-6797.94
-7477.6
-8236.83
-9117.77
-10190.5
-11577
-13506.3
-16455.1
-21565.5
21239.4
16111.5
13144.9
11215.8
9859.16
8851.17
8069.83
7442.44
6922.66
6479.42
6091
5741.61
5419.39
5115.16
4821.58
4532.67
4243.46
3949.74
3647.95
3335.03
3008.42
2665.97
2305.94
1926.94
1527.99
1108.43
667.942
206.528
-275.519
-777.65
-1299.1
-1838.96
-2396.24
-2969.94
-3559.24
-4163.62
-4783.08
-5418.48
-6071.91
-6747.35
-7451.5
-8195.17
-8995.34
-9878.66
-10887.4
-12090.7
-13607.4
-15658.9
-18708.1
-23877.7
22852.4
17693.8
14673.1
12676.4
11247
10166.4
9315.64
8623.17
8042.87
7543.29
7102.01
6702.48
6332.07
5980.82
5640.69
5305.06
4968.35
4625.82
4273.41
3907.66
3525.62
3124.84
2703.31
2259.47
1792.16
1300.67
784.634
244.099
-320.562
-908.669
-1519.28
-2151.26
-2803.38
-3474.37
-4163.12
-4868.84
-5591.26
-6331
-7089.96
-7871.98
-8683.65
-9535.68
-10444.9
-11437.6
-12555.2
-13864.9
-15482.1
-17622.3
-20739.9
-25947.5
24289.7
19111.2
16054.6
14010.8
12528.2
11392.1
10486.1
9739.99
9108.33
8559.67
8071.36
7626.42
7211.7
6816.69
6432.83
6052.94
5670.95
5281.65
4880.58
4463.89
4028.29
3571.05
3089.94
2583.2
2049.57
1488.24
898.873
281.531
-363.312
-1034.83
-1731.89
-2453.12
-3197.01
-3962.02
-4746.7
-5549.92
-6371.09
-7210.48
-8069.66
-8952.11
-9864.1
-10815.9
-11823.8
-12913.3
-14124.5
-15522.7
-17220.1
-19428.1
-22595.6
-27830
25586.2
20394.3
17312.4
15234.6
13712.2
12533.2
11582.9
10792.6
10117.4
9526.15
8996.21
8510.37
8055.16
7619.69
7194.96
6773.4
6348.5
5914.68
5467.08
5001.53
4514.46
4002.86
3464.3
2896.87
2299.2
1670.44
1010.23
318.701
-403.572
-1155.6
-1936.06
-2743.32
-3575.59
-4430.98
-5307.72
-6204.29
-7119.7
-8053.79
-9007.71
-9984.48
-10989.8
-12033.4
-13130.8
-14306.4
-15599.1
-17072.2
-18835.7
-21097.7
-24304
-29558.6
26764.8
21563.2
18463
16359.9
14807.1
13594.2
12608.2
11781.3
11069.1
10441
9874.32
9351.8
8859.77
8387.07
7924.4
7463.82
6998.5
6522.5
6030.67
5518.52
4982.23
4418.58
3824.93
3199.26
2540.09
1846.54
1118.27
355.454
-441.2
-1270.55
-2131.03
-3020.79
-3937.7
-4879.55
-5844.18
-6829.67
-7834.57
-8858.26
-9901.39
-10966.4
-12058.4
-13186.4
-14365.1
-15617.9
-16982.2
-18520
-20339.2
-22645.9
-25883.6
-31154.5
27840.7
22631.9
19518
17395.6
15819
14579.2
13564.1
12706.6
11963
11303
10703.9
10148.6
9623.23
9116.45
8618.7
8121.79
7618.59
7102.88
6569.23
6012.89
5429.82
4816.6
4170.44
3489.18
2771.28
2015.84
1222.53
391.607
-476.101
-1379.27
-2316.14
-3284.55
-4282.09
-5306.19
-6354.29
-7424.03
-8513.51
-9621.6
-10748.4
-11895.7
-13068.1
-14273.7
-15526.3
-16848.5
-18276.5
-19870.9
-21738.2
-24082.8
-27346.8
-32631.2
28824.6
23610.3
20485.8
18348.2
16752.9
15491.3
14452.2
13569.2
12798.9
12111.1
11483.6
10899
10343.6
9805.7
9275.71
8745.14
8206.64
7653.75
7080.79
6482.81
5855.55
5195.41
4499.47
3765.48
2991.85
2177.63
1322.55
426.95
-508.225
-1481.47
-2490.79
-3533.77
-4607.67
-5709.55
-6836.47
-7985.62
-9154.61
-10341.8
-11546.7
-12770.6
-14017.2
-15294
-16614.1
-17999
-19483.9
-21128.4
-23037.7
-25415.1
-28701.7
-33997.7
29723.9
24505.4
21372.5
19222.9
17612.4
16333.1
15274.1
14369.5
13576.4
12864.6
12212.1
11601.5
11019
10453
9893.45
9331.89
8760.7
8173.21
7563.54
6926.55
6257.8
5553.55
4810.76
4027.08
3200.89
2331.23
1417.88
461.252
-537.564
-1576.89
-2654.5
-3767.7
-4913.44
-6088.44
-7289.33
-8512.86
-9756.19
-11017.1
-12294.6
-13589.3
-14904.4
-16246.6
-17628.1
-19069.7
-20605.8
-22294.9
-24241.3
-26647.6
-29953.9
-35259.8
30544
25322
22182.5
20023.3
18400.4
17106.5
16031
15108.2
14295.4
13562.9
12888.4
12254.8
11648
11056.5
10470.2
9880.23
9278.95
8659.49
8015.78
7342.51
6635.1
5889.67
5103.08
4272.93
3397.54
2475.97
1508.04
494.265
-564.144
-1665.32
-2806.82
-3985.69
-5198.56
-6441.79
-7711.63
-9004.4
-10316.8
-11646
-12990.7
-14350.7
-15728.5
-17130.4
-18567.8
-20060.7
-21642.8
-23371.8
-25351.3
-27783.1
-31106.8
-36421.5
31288.7
26064
22919.1
20752
19119
17812.9
16723.6
15785.4
14955.8
14205.3
13511.6
12857.6
12229.3
11614.9
11004.3
10388.5
9759.77
9110.97
8435.93
7729.2
6986.04
6202.49
5375.31
4502.04
3580.98
2611.21
1592.59
525.731
-588.019
-1746.62
-2947.42
-4187.19
-5462.27
-6768.68
-8102.29
-9459
-10835
-12227.2
-13633.4
-15053.2
-16488.4
-17944.7
-19432.7
-20972
-22595.4
-24360.1
-26369.1
-28823.6
-32162.6
-37485.1
31960.8
26733.9
23584.6
21411
19769.7
18453.6
17352.6
16401.3
15557.5
14791.3
14080.9
13409
12761.6
12126.8
11494.4
10855.3
10201.7
9526.18
8822.56
8085.23
7309.34
6490.82
5626.37
4713.47
3750.43
2736.32
1671.08
555.388
-609.266
-1820.68
-3075.98
-4371.71
-5703.91
-7068.28
-8460.33
-9875.58
-11309.8
-12759.4
-14221.7
-15695.9
-17183.1
-18688.4
-20222.2
-21803.1
-23463.6
-25260.2
-27295.4
-29770
-33122.6
-38452
32562.4
27333.7
24180.8
22001.9
20353.7
19029.2
17918.4
16956.1
16100
15320.5
14595.5
13908
13243.8
12590.9
11939.1
11279.3
10603.2
9903.76
9174.36
8409.35
7603.8
6753.56
5855.27
4906.38
3905.16
2850.74
1743.08
582.974
-627.979
-1887.41
-3192.26
-4538.83
-5922.9
-7339.87
-8784.91
-10253.2
-11740
-13241.5
-14754.5
-16277.5
-17811.5
-19360.9
-20935.5
-22553.6
-24247.1
-26072
-28130.4
-30622.8
-33987.5
-39322.9
33095
27864.8
24708.9
22525.7
20871.7
19540.3
18421.3
17449.7
16583.2
15792.3
15054.9
14353.8
13674.9
13006.3
12337.4
11659.2
10963.3
10242.5
9490.12
8700.41
7868.35
6989.73
6061.12
5079.95
4044.5
2953.91
1808.19
608.234
-644.258
-1946.77
-3296.05
-4688.2
-6118.74
-7582.81
-9075.27
-10590.9
-12124.8
-13672.6
-15230.6
-16797.2
-18372.7
-19961.2
-21572
-23222.9
-24945.4
-26795.3
-28874.2
-31382.1
-34757.4
-40098.2
33559.5
28328.1
25169.8
22983
21324.4
19987.2
18861.4
17882.1
17006.8
16206.2
15458.2
14745.6
14054.1
13371.8
12688.2
11994
11280.8
10541.3
9768.78
8957.38
8102.02
7198.4
6243.08
5233.47
4167.83
3045.33
1866.05
630.928
-658.211
-1998.72
-3387.19
-4819.51
-6291.01
-7796.56
-9330.75
-10888.1
-12463.3
-14051.7
-15649.3
-17254
-18865.9
-20488.5
-22130.8
-23810.3
-25558.2
-27429.7
-29526.3
-32047.8
-35432.2
-40777.6
33956.8
28724.4
25564.1
23374.5
21712
20370.1
19238.8
18253
17370.6
16561.9
15805.1
15082.7
14380.6
13686.7
12990.5
12282.7
11554.7
10799.2
10009.4
9179.36
8303.93
7378.79
6400.45
5366.29
4274.6
3124.57
1916.31
650.831
-669.942
-2043.25
-3465.53
-4932.51
-6439.33
-7980.64
-9550.79
-11144
-12754.8
-14378.1
-16009.8
-17647.2
-19290.2
-20942
-22611.3
-24315.3
-26084.8
-27974.8
-30086.5
-32619.5
-36011.7
-41361
34287.3
29054.1
25892.3
23700.4
22034.9
20689.2
19553.4
18562.5
17674.2
16859
16094.9
15364.5
14653.7
13950.3
13243.7
12524.5
11784.3
11015.4
10211.2
9365.57
8473.35
7530.19
6532.57
5477.86
4364.34
3191.22
1958.66
667.742
-679.55
-2080.34
-3530.96
-5026.99
-6563.4
-8134.65
-9734.89
-11358.2
-12998.7
-14651.2
-16311.2
-17975.9
-19644.9
-21321.1
-23012.9
-24737.2
-26524.6
-28430
-30554.2
-33096.8
-36495.4
-41847.9
34551.4
29317.6
26154.6
23960.9
22293
20944.4
19805.2
18810.3
17917.4
17097.1
16327.3
15590.6
14872.9
14161.9
13447
12718.8
11968.8
11189.3
10373.5
9515.33
8609.65
7652.03
6638.92
5567.69
4436.63
3244.96
1992.87
681.488
-687.122
-2110.02
-3583.41
-5102.78
-6662.95
-8258.25
-9882.66
-11530.1
-13194.4
-14870.3
-16553.1
-18239.7
-19929.5
-21625.1
-23334.9
-25075.5
-26877.2
-28794.8
-30929.1
-33479.3
-36883
-42238.1
34749.3
29515.1
26351.2
24156.2
22486.6
21135.9
19994.1
18996.2
18100
17275.9
16501.9
15760.5
15037.7
14321
13600
12865
12107.6
11320.1
10495.6
9628.12
8712.33
7743.82
6719.06
5635.41
4491.14
3285.5
2018.71
691.926
-692.735
-2132.26
-3622.8
-5159.74
-6737.79
-8351.19
-9993.78
-11659.3
-13341.6
-15035.1
-16734.9
-18438
-20143.3
-21853.6
-23576.9
-25329.6
-27142.1
-29068.9
-31210.6
-33766.5
-37174.1
-42531.1
34881.1
29646.6
26482.2
24286.4
22615.7
21263.6
20120.1
19120.3
18221.9
17395.2
16618.4
15874
15147.7
14427.3
13702.2
12962.7
12200.4
11407.6
10577.3
9703.54
8780.99
7805.22
6772.68
5680.71
4527.62
3312.64
2036.02
698.944
-696.446
-2147.09
-3649.09
-5197.77
-6787.78
-8413.26
-10068
-11745.6
-13439.9
-15145.1
-16856.4
-18570.4
-20286.1
-22006.2
-23738.4
-25499.3
-27318.9
-29251.8
-31398.5
-33958.2
-37368.3
-42726.6
34947
29712.4
26547.7
24351.4
22680.2
21327.4
20183.1
19182.3
18282.8
17455
16676.7
15930.8
15202.8
14480.5
13753.3
13011.6
12246.9
11451.4
10618.2
9741.32
8815.39
7835.98
6799.54
5703.41
4545.9
3326.25
2044.7
702.469
-698.295
-2154.51
-3662.25
-5216.8
-6812.8
-8444.33
-10105.1
-11788.8
-13489.1
-15200.2
-16917.2
-18636.7
-20357.6
-22082.5
-23819.3
-25584.2
-27407.4
-29343.3
-31492.5
-34054.1
-37465.5
-42824.5
34947.1
29712.4
26547.7
24351.5
22680.2
21327.4
20183.1
19182.4
18282.8
17455
16676.8
15930.8
15202.8
14480.6
13753.3
13011.6
12246.9
11451.4
10618.2
9741.32
8815.39
7835.98
6799.54
5703.41
4545.89
3326.25
2044.7
702.463
-698.302
-2154.52
-3662.26
-5216.82
-6812.81
-8444.35
-10105.2
-11788.8
-13489.1
-15200.2
-16917.2
-18636.7
-20357.6
-22082.5
-23819.3
-25584.2
-27407.4
-29343.3
-31492.5
-34054
-37465.5
-42824.4
34881.2
29646.7
26482.3
24286.4
22615.7
21263.6
20120.1
19120.3
18221.9
17395.3
16618.4
15874
15147.7
14427.3
13702.2
12962.7
12200.4
11407.6
10577.3
9703.55
8781
7805.22
6772.68
5680.71
4527.61
3312.63
2036.01
698.925
-696.469
-2147.12
-3649.12
-5197.8
-6787.81
-8413.3
-10068
-11745.7
-13439.9
-15145.1
-16856.4
-18570.4
-20286.2
-22006.2
-23738.4
-25499.3
-27318.9
-29251.8
-31398.5
-33958.1
-37368.3
-42726.6
34749.3
29515.1
26351.3
24156.2
22486.7
21135.9
19994.2
18996.3
18100
17275.9
16501.9
15760.6
15037.7
14321.1
13600
12865
12107.6
11320.1
10495.6
9628.14
8712.34
7743.83
6719.06
5635.4
4491.12
3285.48
2018.68
691.894
-692.773
-2132.31
-3622.85
-5159.79
-6737.85
-8351.25
-9993.84
-11659.4
-13341.7
-15035.1
-16735
-18438
-20143.4
-21853.7
-23576.9
-25329.6
-27142.1
-29068.9
-31210.6
-33766.4
-37174
-42531.1
34551.4
29317.6
26154.7
23960.9
22293.1
20944.5
19805.2
18810.3
17917.5
17097.1
16327.3
15590.7
14872.9
14161.9
13447.1
12718.8
11968.8
11189.3
10373.5
9515.35
8609.67
7652.04
6638.92
5567.68
4436.61
3244.93
1992.83
681.444
-687.175
-2110.08
-3583.48
-5102.85
-6663.03
-8258.34
-9882.75
-11530.1
-13194.5
-14870.4
-16553.2
-18239.8
-19929.5
-21625.2
-23335
-25075.5
-26877.2
-28794.8
-30929
-33479.2
-36882.9
-42238
34287.3
29054.2
25892.4
23700.4
22034.9
20689.2
19553.5
18562.5
17674.3
16859.1
16094.9
15364.6
14653.8
13950.4
13243.8
12524.6
11784.3
11015.5
10211.2
9365.6
8473.37
7530.2
6532.57
5477.85
4364.32
3191.19
1958.62
667.686
-679.617
-2080.42
-3531.05
-5027.09
-6563.5
-8134.76
-9735.01
-11358.3
-12998.8
-14651.3
-16311.3
-17976
-19645
-21321.1
-23013
-24737.2
-26524.6
-28430
-30554.2
-33096.7
-36495.3
-41847.8
33956.9
28724.5
25564.2
23374.6
21712.1
20370.2
19238.9
18253.1
17370.7
16562
15805.1
15082.8
14380.7
13686.8
12990.6
12282.7
11554.8
10799.3
10009.5
9179.4
8303.96
7378.8
6400.45
5366.28
4274.58
3124.53
1916.25
650.764
-670.022
-2043.34
-3465.63
-4932.63
-6439.46
-7980.77
-9550.92
-11144.2
-12755
-14378.2
-16009.9
-17647.3
-19290.3
-20942.1
-22611.4
-24315.3
-26084.8
-27974.8
-30086.4
-32619.4
-36011.6
-41360.8
33559.6
28328.2
25169.9
22983.1
21324.5
19987.2
18861.5
17882.1
17006.9
16206.3
15458.3
14745.7
14054.2
13371.9
12688.3
11994
11280.9
10541.4
9768.84
8957.43
8102.05
7198.42
6243.09
5233.46
4167.8
3045.29
1865.99
630.85
-658.304
-1998.83
-3387.31
-4819.64
-6291.15
-7796.71
-9330.91
-10888.3
-12463.5
-14051.8
-15649.5
-17254.2
-18866
-20488.5
-22130.9
-23810.4
-25558.2
-27429.7
-29526.3
-32047.7
-35432.1
-40777.4
33095.1
27864.9
24709
22525.8
20871.9
19540.4
18421.4
17449.8
16583.3
15792.4
15055
14353.9
13675
13006.4
12337.5
11659.3
10963.4
10242.6
9490.18
8700.46
7868.39
6989.75
6061.12
5079.93
4044.47
2953.86
1808.13
608.148
-644.362
-1946.89
-3296.19
-4688.35
-6118.91
-7582.98
-9075.45
-10591.1
-12125
-13672.7
-15230.8
-16797.4
-18372.9
-19961.3
-21572
-23222.9
-24945.4
-26795.3
-28874.1
-31382
-34757.2
-40098
32562.6
27333.8
24180.9
22002.1
20353.8
19029.3
17918.5
16956.2
16100.1
15320.6
14595.7
13908.1
13243.9
12591
11939.2
11279.4
10603.3
9903.84
9174.42
8409.4
7603.84
6753.59
5855.28
4906.36
3905.12
2850.68
1743
582.879
-628.093
-1887.55
-3192.41
-4538.99
-5923.08
-7340.06
-8785.1
-10253.4
-11740.3
-13241.7
-14754.7
-16277.7
-17811.7
-19361
-20935.6
-22553.6
-24247.1
-26072
-28130.4
-30622.7
-33987.3
-39322.8
31960.9
26734
23584.7
21411.2
19769.8
18453.7
17352.7
16401.5
15557.6
14791.4
14081
13409.1
12761.7
12126.9
11494.5
10855.4
10201.8
9526.26
8822.64
8085.29
7309.38
6490.84
5626.37
4713.46
3750.39
2736.27
1671
555.286
-609.39
-1820.82
-3076.14
-4371.89
-5704.1
-7068.49
-8460.54
-9875.79
-11310
-12759.6
-14222
-15696
-17183.3
-18688.6
-20222.3
-21803.2
-23463.6
-25260.2
-27295.3
-29769.8
-33122.5
-38451.8
31288.8
26064.1
22919.2
20752.1
19119.1
17813.1
16723.7
15785.5
14956
14205.4
13511.7
12857.7
12229.4
11615
11004.4
10388.7
9759.88
9111.07
8436.01
7729.26
6986.09
6202.52
5375.32
4502.02
3580.94
2611.15
1592.5
525.623
-588.15
-1746.78
-2947.59
-4187.38
-5462.48
-6768.9
-8102.52
-9459.23
-10835.3
-12227.4
-13633.7
-15053.4
-16488.6
-17944.8
-19432.8
-20972.1
-22595.5
-24360.1
-26369
-28823.4
-32162.4
-37484.9
30544.1
25322.2
22182.6
20023.4
18400.5
17106.6
16031.1
15108.3
14295.6
13563
12888.5
12254.9
11648.2
11056.7
10470.3
9880.35
9279.06
8659.59
8015.87
7342.58
6635.15
5889.7
5103.09
4272.92
3397.5
2475.91
1507.95
494.152
-564.281
-1665.48
-2807.01
-3985.89
-5198.78
-6442.03
-7711.87
-9004.65
-10317
-11646.3
-12990.9
-14350.9
-15728.7
-17130.6
-18567.9
-20060.8
-21642.9
-23371.8
-25351.2
-27783
-31106.6
-36421.3
29724
24505.5
21372.6
19223.1
17612.5
16333.2
15274.3
14369.7
13576.5
12864.8
12212.2
11601.7
11019.1
10453.1
9893.59
9332.01
8760.81
8173.32
7563.64
6926.63
6257.86
5553.59
4810.77
4027.07
3200.85
2331.17
1417.79
461.136
-537.705
-1577.05
-2654.68
-3767.91
-4913.67
-6088.68
-7289.58
-8513.12
-9756.44
-11017.4
-12294.9
-13589.6
-14904.6
-16246.7
-17628.2
-19069.8
-20605.8
-22294.8
-24241.2
-26647.4
-29953.7
-35259.6
28824.7
23610.5
20485.9
18348.4
16753
15491.5
14452.4
13569.3
12799
12111.2
11483.7
10899.2
10343.7
9805.85
9275.85
8745.27
8206.77
7653.86
7080.89
6482.89
5855.61
5195.44
4499.49
3765.47
2991.81
2177.57
1322.46
426.833
-508.368
-1481.64
-2490.99
-3533.98
-4607.9
-5709.8
-6836.73
-7985.88
-9154.87
-10342.1
-11546.9
-12770.8
-14017.4
-15294.2
-16614.2
-17999.1
-19484
-21128.4
-23037.6
-25415
-28701.5
-33997.4
27840.9
22632.1
19518.2
17395.7
15819.1
14579.3
13564.2
12706.7
11963.2
11303.1
10704.1
10148.8
9623.39
9116.6
8618.85
8121.93
7618.72
7102.99
6569.32
6012.98
5429.89
4816.64
4170.45
3489.17
2771.25
2015.78
1222.44
391.491
-476.244
-1379.44
-2316.33
-3284.77
-4282.33
-5306.44
-6354.55
-7424.3
-8513.78
-9621.86
-10748.6
-11896
-13068.3
-14273.8
-15526.5
-16848.6
-18276.5
-19870.9
-21738
-24082.6
-27346.6
-32630.9
26764.9
21563.3
18463.2
16360.1
14807.2
13594.4
12608.4
11781.4
11069.3
10441.2
9874.48
9351.96
8859.92
8387.22
7924.54
7463.96
6998.63
6522.62
6030.77
5518.61
4982.3
4418.62
3824.95
3199.25
2540.06
1846.48
1118.18
355.34
-441.341
-1270.71
-2131.23
-3021
-3937.93
-4879.8
-5844.45
-6829.94
-7834.84
-8858.53
-9901.65
-10966.6
-12058.6
-13186.6
-14365.2
-15617.9
-16982.2
-18520
-20339.1
-22645.7
-25883.4
-31154.2
25586.4
20394.4
17312.6
15234.8
13712.4
12533.3
11583
10792.7
10117.5
9526.31
8996.36
8510.53
8055.31
7619.84
7195.11
6773.54
6348.63
5914.8
5467.19
5001.62
4514.52
4002.9
3464.32
2896.87
2299.17
1670.39
1010.15
318.591
-403.709
-1155.77
-1936.25
-2743.53
-3575.82
-4431.23
-5307.98
-6204.56
-7119.97
-8054.06
-9007.97
-9984.72
-10990
-12033.6
-13130.9
-14306.5
-15599.1
-17072.2
-18835.6
-21097.5
-24303.8
-29558.4
24289.8
19111.4
16054.7
14010.9
12528.3
11392.2
10486.2
9740.13
9108.47
8559.82
8071.51
7626.57
7211.85
6816.84
6432.97
6053.07
5671.07
5281.77
4880.68
4463.97
4028.36
3571.1
3089.96
2583.2
2049.54
1488.19
898.797
281.428
-363.441
-1034.98
-1732.07
-2453.32
-3197.23
-3962.26
-4746.95
-5550.18
-6371.35
-7210.74
-8069.91
-8952.35
-9864.32
-10816.1
-11824
-12913.4
-14124.6
-15522.6
-17220
-19427.9
-22595.4
-27829.8
22852.6
17693.9
14673.2
12676.6
11247.2
10166.6
9315.77
8623.31
8043.01
7543.43
7102.15
6702.63
6332.21
5980.96
5640.83
5305.19
4968.47
4625.93
4273.51
3907.74
3525.69
3124.89
2703.34
2259.47
1792.14
1300.62
784.565
244.005
-320.682
-908.814
-1519.45
-2151.45
-2803.58
-3474.59
-4163.36
-4869.08
-5591.51
-6331.25
-7090.21
-7872.21
-8683.86
-9535.86
-10445.1
-11437.7
-12555.2
-13864.9
-15482
-17622.2
-20739.7
-25947.2
21239.5
16111.6
13145
11215.9
9859.28
8851.29
8069.95
7442.56
6922.78
6479.55
6091.14
5741.75
5419.53
5115.29
4821.71
4532.8
4243.58
3949.85
3648.04
3335.11
3008.49
2666.02
2305.97
1926.95
1527.98
1108.39
667.881
206.444
-275.626
-777.78
-1299.26
-1839.14
-2396.43
-2970.15
-3559.46
-4163.85
-4783.31
-5418.71
-6072.13
-6747.56
-7451.69
-8195.34
-8995.48
-9878.75
-10887.4
-12090.7
-13607.3
-15658.7
-18708
-23877.5
19393.7
14317.6
11436.9
9608.32
8353.56
7441.62
6747.89
6199.35
5750.51
5371.56
5042.1
4747.63
4477.43
4223.35
3978.94
3739.03
3499.34
3256.28
3006.81
2748.38
2478.82
2196.31
1899.4
1586.93
1258.06
912.227
549.159
168.837
-228.519
-642.48
-1072.45
-1517.71
-1977.49
-2451.04
-2937.78
-3437.39
-3950.06
-4476.76
-5019.61
-5582.48
-6171.84
-6798.09
-7477.73
-8236.91
-9117.81
-10190.5
-11577
-13506.2
-16454.9
-21565.3
17216.1
12236.8
9501.9
7828.73
6718.86
5934.53
5350.85
4897.06
4530.5
4224.05
3959.64
3724.71
3510.13
3309.07
3116.22
2927.33
2738.92
2548.12
2352.48
2149.96
1938.82
1717.65
1485.25
1240.73
983.413
712.842
428.794
131.242
-179.655
-503.578
-840.08
-1188.62
-1548.64
-1919.6
-2301.08
-2692.95
-3095.48
-3509.61
-3937.28
-4381.99
-4849.53
-5349.27
-5896.22
-6514.64
-7244.6
-8154.55
-9367.39
-11119.2
-13907.3
-18913.4
14517.8
9744.46
7275.39
5849.89
4947.44
4331.27
3883.83
3541.94
3269.16
3043.15
2849.46
2678.21
2522.41
2376.85
2237.56
2101.36
1965.69
1828.44
1687.81
1542.33
1390.72
1231.95
1065.17
889.706
705.078
510.956
307.169
93.6903
-129.373
-361.801
-603.285
-853.454
-1111.92
-1378.32
-1652.41
-1934.12
-2223.73
-2522.04
-2830.61
-3152.24
-3491.56
-3856.13
-4258.23
-4718.15
-5270.46
-5976.67
-6952.94
-8434.85
-10942
-15734.6
10890.6
6632.1
4679.39
3652.71
3042.27
2641.59
2357.67
2144.09
1975.43
1836.69
1718.38
1614.17
1519.62
1431.48
1347.26
1265.01
1183.17
1100.42
1015.69
928.065
836.778
741.198
640.811
535.212
424.103
307.285
184.653
56.1877
-78.0498
-217.931
-363.274
-513.863
-669.47
-829.893
-994.991
-1164.76
-1339.38
-1519.4
-1705.83
-1900.49
-2106.39
-2328.47
-2574.91
-2859.48
-3206.47
-3661.31
-4316.14
-5376.75
-7352.38
-11622.4
5306.83
2583.83
1660.92
1252.43
1029.33
888.603
790.812
718.012
660.882
614.074
574.27
539.28
507.581
478.061
449.879
422.375
395.018
367.37
339.067
309.801
279.319
247.405
213.89
178.636
141.544
102.547
61.6097
18.7247
-26.088
-72.7861
-121.31
-171.588
-223.546
-277.117
-332.259
-388.971
-447.326
-507.506
-569.871
-635.047
-704.082
-778.704
-861.791
-958.283
-1077.12
-1235.92
-1473.84
-1893.65
-2824.21
-5551.07
2590.77
1910.21
1454.14
1174.62
994.911
871.62
781.9
713.251
658.424
612.959
573.966
539.474
508.08
478.744
450.665
423.212
395.867
368.206
339.869
310.557
280.015
248.034
214.442
179.105
141.923
102.832
61.7941
18.8055
-26.1134
-72.9191
-121.549
-171.931
-223.984
-277.638
-332.842
-389.583
-447.914
-507.994
-570.137
-634.898
-703.203
-776.558
-857.416
-949.824
-1060.66
-1202.08
-1396.65
-1687.53
-2151.28
-2835.7
6652.06
5280.2
4187.81
3448.28
2946.9
2593.24
2331.96
2130.26
1968.28
1833.46
1717.53
1614.78
1521.14
1433.53
1349.62
1267.52
1185.72
1102.93
1018.1
930.33
838.866
743.082
642.465
536.617
425.24
308.137
185.206
56.4302
-78.1259
-218.33
-363.993
-514.891
-670.786
-831.457
-996.742
-1166.59
-1341.16
-1520.88
-1706.66
-1900.1
-2103.86
-2322.25
-2562.23
-2835.12
-3159.67
-3567.66
-4113.57
-4887.14
-6002.52
-7385.96
9776.23
8086.22
6619.71
5558.99
4805.57
4257.29
3843.81
3520.23
3257.91
3038.13
2848.24
2679.35
2525
2380.31
2241.51
2105.54
1969.93
1832.61
1691.82
1546.09
1394.19
1235.08
1067.92
892.041
706.967
512.371
308.086
94.0916
-129.502
-362.467
-604.483
-855.169
-1114.11
-1380.93
-1655.33
-1937.2
-2226.73
-2524.57
-2832.1
-3151.79
-3487.71
-3846.44
-4238.44
-4680.39
-5199.05
-5837.65
-6665.12
-7782.44
-9287.18
-10996.4
12279.2
10435.9
8755.38
7482.91
6544.35
5841.29
5299.62
4869.05
4516
4217.69
3958.31
3726.5
3513.87
3313.98
3121.78
2933.2
2744.86
2553.95
2358.07
2155.22
1943.67
1722.02
1489.09
1243.99
986.047
714.815
430.073
131.8
-179.838
-504.511
-841.758
-1191.03
-1551.72
-1923.26
-2305.2
-2697.31
-3099.74
-3513.27
-3939.59
-4381.74
-4844.81
-5336.94
-5870.89
-6466.56
-7154.95
-7984
-9025.85
-10377.3
-12111.2
-13981.3
14369.8
12446.2
10639.8
9228.63
8157.25
7334.77
6688.46
6166.69
5733.68
5364.39
5040.96
4750.26
4482.42
4229.75
3986.14
3746.6
3506.97
3263.76
3013.99
2755.12
2485.03
2201.91
1904.32
1591.1
1261.43
914.752
550.794
169.548
-228.757
-643.681
-1074.61
-1520.8
-1981.45
-2455.77
-2943.1
-3443.04
-3955.64
-4481.66
-5022.9
-5582.72
-6166.77
-6784.04
-7448.5
-8181.51
-9015.54
-9999.23
-11202.8
-12714.9
-14589.6
-16547.5
16172.7
14203.2
12319.3
10815.6
9648.92
8735.29
8004.9
7406.75
6904.51
6472.11
6090.49
5745.4
5425.86
5123.24
4830.56
4542.06
4252.89
3958.97
3656.78
3343.32
3016.04
2672.83
2311.94
1932.02
1532.08
1111.46
669.867
207.305
-275.922
-779.249
-1301.89
-1842.91
-2401.27
-2975.94
-3566
-4170.83
-4790.27
-5424.94
-6076.59
-6748.61
-7446.81
-8180.45
-8963.84
-9818.61
-10777
-11886.5
-13213.7
-14840.1
-16806.9
-18818.1
17763.2
15765.3
13831.1
12263.9
11028.1
10044.8
9247.17
8585.62
8024.07
7536.17
7102.29
6707.46
6339.98
5990.5
5651.35
5316.14
4979.46
4636.67
4283.78
3917.38
3534.56
3132.89
2710.36
2265.43
1796.96
1304.22
786.893
245.01
-321.038
-910.549
-1522.56
-2155.91
-2809.31
-3481.44
-4171.12
-4877.41
-5599.89
-6338.91
-7095.98
-7874.34
-8679.61
-9520.9
-10412.3
-11374.9
-12439.9
-13653
-15077.1
-16788.3
-18819.7
-20866.5
19188.2
17171.7
15203.3
13591
12304
11267
10415.6
9701.58
9089.5
8553.14
8072.67
7632.72
7221.13
6828
6445.16
6065.7
5683.71
5294.1
4892.47
4475.02
4038.53
3580.26
3098
2590.01
2055.05
1492.31
901.456
282.572
-363.857
-1036.98
-1735.65
-2458.45
-3203.83
-3970.17
-4755.94
-5559.88
-6381.2
-7219.9
-8077.15
-8955.8
-9861.1
-10801.7
-11791
-12849.4
-14006.8
-15306.6
-16809
-18585.9
-20665.5
-22738
20478.1
18448.6
16456
14810.9
13485.2
12406.3
11511.6
10754.1
10099
9520.54
8998.73
8518.1
8066.15
7632.64
7208.97
6787.82
6362.88
5928.68
5480.44
5014.04
4525.95
4013.19
3473.34
2904.52
2305.35
1675
1013.13
319.868
-404.187
-1158.03
-1940.29
-2749.32
-3583.27
-4440.19
-5318.19
-6215.62
-7131.3
-8064.78
-9016.78
-9989.67
-10988.1
-12020.2
-13098.6
-14242.5
-15480.5
-16854.3
-18421.7
-20251.5
-22368.9
-24461.2
21653.3
19614.5
17604
15934.3
14578.9
13466.8
12536.9
11743.2
11051.6
10436.5
9878.2
9361.03
8872.35
8401.66
7940.04
7479.86
7014.45
6538
6045.44
5532.35
4994.93
4429.99
3834.93
3207.71
2546.89
1851.59
1121.47
356.743
-441.881
-1273.23
-2135.72
-3027.44
-3946.22
-4889.79
-5855.85
-6842.36
-7847.66
-8870.84
-9912.1
-10973.2
-12058.3
-13174.6
-14334
-15554.7
-16863.9
-18301.8
-19924.3
-21798.2
-23946.5
-26054.8
22727.8
20681.9
18658
16969.3
15590.6
14452
13493.3
12669.4
11946.7
11299.8
10709.2
10159.4
9637.4
9132.64
8635.95
8139.4
7636.06
7119.84
6585.37
6028
5443.69
4829.06
4181.34
3498.4
2778.7
2021.34
1226.02
393.013
-476.846
-1382.21
-2321.27
-3291.83
-4291.44
-5317.43
-6367.13
-7438.06
-8528.07
-9635.76
-10760.8
-11904.3
-13069.7
-14263.5
-15496.7
-16786.6
-18159.2
-19653.4
-21323.6
-23235.1
-25409.5
-27531.1
23711.4
21660.1
19625.8
17922.2
16524.9
15364.7
14382.4
13533.1
12783.7
12109.3
11490.4
10911.3
10359.3
9823.47
9294.51
8764.27
8225.58
7672.1
7098.25
6499.13
5870.52
5208.86
4511.25
3775.44
2999.86
2183.58
1326.33
428.468
-509.031
-1484.64
-2496.34
-3541.66
-4617.8
-5721.75
-6850.45
-8000.94
-9170.62
-10357.5
-11560.7
-12780.8
-14020.5
-15285.6
-16586.2
-17938.7
-19368.1
-20912.2
-22624.3
-24568.4
-26765.3
-28898.4
24611.1
22555.6
20513
18797.5
17385.2
16207.5
15205.4
14334.7
13562.6
12864.3
12220.4
11615.3
11036.3
10472.2
9913.74
9352.46
8781.02
8192.88
7582.25
6944.03
6273.83
5567.95
4823.36
4037.74
3209.46
2337.59
1421.92
462.877
-538.427
-1580.29
-2660.44
-3776.16
-4924.32
-6101.56
-7304.39
-8529.43
-9773.59
-11034.4
-12310.3
-13601.4
-14909.6
-16240
-17602.1
-19011.2
-20491.7
-22080.3
-23829.5
-25802.4
-28018.9
-30161.9
25432
23373.2
21323.9
19598.9
18174.3
16982.1
15963.5
15074.7
14283
13563.9
12898.1
12270
11666.8
11077.3
10491.9
9902.18
9300.59
8680.41
8035.65
7361.07
6652.12
5904.96
5116.46
4284.24
3406.63
2482.73
1512.33
495.991
-565.06
-1668.93
-2813.15
-3994.69
-5210.14
-6455.78
-7727.73
-9022.15
-10335.5
-11664.8
-13007.9
-14364.3
-15735.5
-17125.7
-18543.7
-20004.1
-21530.7
-23159.2
-24941.3
-26939.7
-29173.6
-31325.4
26177.7
24116.2
22061.6
20328.7
18894.1
17689.8
16657.4
15753.2
14944.8
14207.7
13522.7
12874.3
12249.4
11637
11027.3
10411.8
9782.64
9133.06
8456.9
7748.77
7003.99
6218.6
5389.41
4513.96
3590.57
2618.33
1597.11
527.552
-588.984
-1750.43
-2954.09
-4196.69
-5474.51
-6783.48
-8119.35
-9477.86
-10855
-12247.3
-13652.2
-15068.5
-16497.1
-17941.7
-19410.4
-20917.3
-22485.2
-24149.4
-25961
-27982.1
-30231.3
-32390.9
26851
24787.3
22728.3
20989
19546
18331.7
17287.7
16370.5
15547.8
14795.1
14093.4
13427
12783
12150.2
11518.7
10879.8
10225.7
9549.34
8844.54
8105.74
7328.14
6507.7
5641.14
4725.96
3760.47
2743.78
1675.82
557.297
-610.277
-1824.67
-3082.98
-4381.68
-5716.76
-7083.84
-8478.29
-9895.48
-11331
-12780.8
-14242
-15712.7
-17193.4
-18687.2
-20201.6
-21750.2
-23355.2
-25051.3
-26889.2
-28930.4
-31193.2
-33359.7
27453.8
25388.2
23325.7
21581.1
20131.2
18908.5
17854.7
16926.5
16091.5
15325.5
14609.3
13927.2
13266.4
12615.5
11964.5
11304.8
10628.3
9927.91
9197.26
8430.71
7623.38
6771.14
5870.65
4919.38
3915.62
2858.51
1748.02
584.964
-629.03
-1891.57
-3199.55
-4549.22
-5936.31
-7356.11
-8803.69
-10274
-11762.3
-13264.1
-14776
-16295.8
-17823.3
-19361.2
-20916.6
-22502.4
-24140.4
-25864.9
-27726.1
-29785.1
-32060
-34232.5
27987.4
25920.4
23854.9
22105.9
20650.4
19420.7
18358.8
17421.2
16575.9
15798.4
15069.7
14374.1
13698.6
13031.8
12363.8
11685.7
10989.3
10267.5
9513.85
8722.54
7888.64
7007.93
6077.05
5093.42
4055.33
2961.95
1813.31
610.298
-645.345
-1951.08
-3303.61
-4698.98
-6132.66
-7599.68
-9094.79
-10612.6
-12148
-13696.2
-15253.3
-16816.7
-18385.8
-19963
-21554.6
-23173.3
-24840.4
-26589.9
-28471.5
-30546.2
-32831.6
-35009.5
28453
26384.7
24316.8
22564.3
21104.1
19868.6
18799.9
17854.6
17000.5
16213.4
15474
14766.9
14078.8
13398.3
12715.5
12021.3
11307.6
10567.1
9793.26
8980.2
8122.92
7217.17
6259.5
5247.35
4179
3053.63
1871.32
633.057
-659.329
-2003.16
-3394.97
-4830.63
-6305.37
-7813.98
-9350.93
-10910.6
-12487.4
-14076.3
-15673.1
-17274.7
-18880.2
-20491.5
-22114.8
-23762.2
-25454.7
-27225.9
-29125.3
-31213.4
-33508
-35690.5
28851.2
26781.9
24712.1
22956.7
21492.6
20252.4
19178.2
18226.5
17365.2
16570
15821.7
15104.8
14406.1
13714.1
13018.6
12310.8
11582.3
10825.7
10034.5
9202.77
8325.37
7398.03
6417.29
5380.53
4286.06
3133.08
1921.72
653.017
-671.087
-2047.8
-3473.52
-4943.92
-6454.07
-7998.53
-9571.54
-11167.2
-12779.7
-14403.6
-16034.4
-17668.9
-19305.6
-20946.2
-22596.5
-24268.4
-25982.6
-27772.3
-29686.8
-31786.5
-34088.9
-36275.3
29182.4
27112.4
25041
23283.3
21816.2
20572.3
19493.6
18536.7
17669.5
16867.8
16112.3
15387.4
14679.9
13978.3
13272.5
12553.3
11812.4