/*--------------------------------*- C++ -*----------------------------------*\
| =========                 |                                                 |
| \\      /  F ield         | OpenFOAM: The Open Source CFD Toolbox           |
|  \\    /   O peration     | Version:  5.x                                   |
|   \\  /    A nd           | Web:      www.OpenFOAM.org                      |
|    \\/     M anipulation  |                                                 |
\*---------------------------------------------------------------------------*/
FoamFile
{
    version     2.0;
    format      ascii;
    class       volScalarField;
    location    "1.3";
    object      gradTy;
}
// * * * * * * * * * * * * * * * * * * * * * * * * * * * * * * * * * * * * * //

dimensions      [0 -1 0 1 0 0 0];

internalField   nonuniform List<scalar> 
25000
(
5306.51
10890.8
14522.4
17231.1
19427.5
21302.6
22957.6
24451.1
25819.7
27087.3
28270.4
29379.9
30423.7
31407.1
32333.2
33204.1
34020.6
34782.3
35488.3
36137
36726.1
37253.1
37714.7
38107.7
38428.6
38673.4
38838.4
38919.7
38913.4
38815.6
38622.7
38331.1
37937.3
37438.1
36830.4
36111
35276.8
34324.4
33250
32048.8
30714.5
29238.4
27607.4
25801.8
23789.7
21518.2
18892.5
15728.2
11622
5551.53
2582.27
6628.66
9742.85
12243.1
14340.3
16161.2
17782.9
19254.1
20606.8
21862.3
23035.8
24137.5
25174.6
26152.2
27073.4
27939.9
28752.3
29510.5
30213.3
30859.2
31445.8
31970.5
32430.3
32821.8
33141.4
33385.3
33549.8
33630.9
33624.8
33527.7
33335.9
33045.8
32654.1
32157.5
31552.9
30837.4
30007.9
29061.1
27993.5
26800.5
25476.4
24013.1
22399
20616.7
18639.2
16423.4
13898.5
10944.3
7357.2
2826.4
1656.91
4668.6
7261.53
9491.06
11437.5
13167.6
14730.4
16160.7
17483.3
18715.7
19870.6
20957
21981.1
22947.4
23858.6
24716.3
25520.9
26272
26968.6
27608.8
28190.4
28710.8
29166.8
29555.2
29872.4
30114.5
30277.9
30358.7
30353
30257.1
30067.4
29780.4
29392.7
28901.3
28303.1
27595.3
26775
25839.3
24784.9
23607.9
22303.5
20864.8
19282.7
17543.6
15627.6
13505.5
11134.4
8454.21
5391.83
1899.26
1244.79
3631.05
5817.9
7792.52
9576.3
11198.6
12686.6
14062.6
15344
16543.9
17672.3
18736.5
19741.7
20691.5
21588.2
22432.8
23225.8
23966.5
24653.6
25285.4
25859.6
26373.5
26824
27207.7
27521.2
27760.7
27922.5
28002.7
27997.7
27903.6
27717
27434.5
27052.8
26569
25980.2
25283.7
24477
23557.4
22522.3
21368.5
20092.2
18688.3
17150.3
15468.9
13631.5
11621.5
9417.74
6997.46
4346.31
1484.48
1016.95
3006.39
4891.75
6649.46
8278.86
9789.85
11195.6
12508.9
13741.1
14901.2
15996.5
17032.6
18013.5
18942
19819.7
20647.5
21425.2
22152.1
22826.9
23447.6
24012
24517.3
24960.4
25338
25646.6
25882.5
26042.1
26121.7
26117.4
26025.7
25843.2
25566.6
25192.7
24718.9
24142.3
23460.5
22671.4
21772.8
20762.4
19638
18396.9
17035.9
15550.8
13936.6
12186.7
10293.8
8250.6
6053.83
3711.06
1253.09
870.456
2588.39
4246.71
5824.7
7314.93
8718.3
10039.9
11286.2
12463.8
13578.6
14635.6
15638.7
16590.6
17493.4
18348.2
19155.3
19914.3
20624.4
21284
21891.1
22443.3
22937.9
23371.9
23741.9
24044.4
24276
24432.8
24511.4
24508
24419.3
24241.7
23972.3
23608
23146.2
22584.5
21920.7
21152.9
20279.3
19298.4
18208.7
17008.7
15696.8
14271
12729.5
11070.2
9292.04
7395.79
5386.98
3279.83
1102.16
765.955
2284.34
3765.71
5194.02
6560.74
7863.04
9101.67
10279.3
11399.2
12464.9
13479.5
14445.3
15364.3
16237.6
17065.8
17848.9
18586.1
19276.3
19918
20509
21046.8
21528.8
21951.9
22312.8
22608.2
22834.4
22988
23065.3
23063
22977.6
22805.8
22544.8
22191.7
21744
21199.6
20556.5
19813.3
18968.5
18021.3
16970.8
15816.5
14558.2
13195.8
11729.7
10161.1
8492.58
6729.13
4879.86
2959.95
992.349
685.623
2048.16
3386.14
4687.46
5944.32
7152.63
8311.03
9419.88
10480.5
11494.4
12463.3
13388.6
14271.2
15111.7
15910.1
16666
17378.4
18046.1
18667.3
19239.8
19761.2
20228.6
20639.2
20989.6
21276.6
21496.6
21646.3
21722.2
21721
21639.2
21474
21222.5
20882
20450.2
19925.3
19305.6
18589.9
17777.2
16867.1
15859.4
14754.6
13553.3
12256.9
10867.4
9388.04
7823.48
6180.71
4469.91
2705.34
905.844
620.274
1854.83
3072.23
4263.28
5421.34
6542.16
7623.46
8664.32
9664.73
10625.1
11546.1
12428.1
13271.5
14076.2
14841.8
15567.7
16252.7
16895.3
17493.6
18045.4
18548.2
18999.3
19395.7
19734.3
20011.8
20224.8
20370.1
20444.2
20444
20366.3
20208.3
19967.2
19640.6
19226.5
18723.1
18129
17443.3
16665.5
15795.6
14833.8
13781.3
12639.5
11410.7
10098.2
8706.21
7240.52
5708.87
4121.41
2491.04
833.464
564.703
1689.8
2802.37
3895.39
4963.3
6002.16
7009.35
7983.34
8923.35
9829
10700.2
11536.7
12338.4
13104.8
13835.2
14528.5
15183.6
15798.6
16371.8
16900.8
17383.1
17816.1
18196.9
18522.3
18789.2
18994.3
19134.6
19206.6
19207.5
19134.1
18983.8
18754
18442.6
18047.5
17567.4
17001
16347.6
15607.2
14779.8
13866.5
12868.6
11788.2
10628.3
9392.72
8086.29
6715.3
5287.59
3812.81
2302.51
770.021
515.756
1544.04
2562.9
3566.83
4551.25
5512.61
6448.34
7356.62
8236.23
9086.34
9906.32
10695.6
11453.5
12179.4
12872.2
13530.7
14153.5
14738.8
15284.7
15789
16249
16662.3
17025.9
17336.8
17592.1
17788.6
17923.2
17992.9
17994.7
17925.8
17783.7
17566.1
17270.8
16896.1
16440.8
15903.8
15284.8
14583.8
13801.3
12938.5
11997.1
10979.7
9889.54
8730.72
7508.43
6229
4900.04
3530.52
2130.79
712.372
471.412
1411.76
2344.82
3266.22
4172.18
5059.61
5926.06
6769.68
7589.02
8382.99
9150.65
9891.13
10603.6
11286.9
11940.1
12561.7
13150.1
13703.8
14220.5
14698.1
15134.1
15526.1
15871.1
16166.4
16409
16596
16724.4
16791.3
16794
16729.9
16596.4
16391.5
16113.3
15760.2
15331
14825.1
14242.2
13582.4
12846.7
12036.2
11153
10199.9
9180.12
8098.08
6958.92
5768.81
4534.96
3265.65
1970.13
658.521
430.329
1289.04
2142.01
2985.71
3817.02
4633.25
5432.18
6211.99
6971.2
7708.55
8422.96
9113.36
9778.7
10417.8
11029.5
11612.3
12164.6
12684.6
13170.4
13619.6
14030
14399.2
14724.3
15002.8
15231.8
15408.5
15530.1
15594
15597.4
15538
15413.6
15222
14961.6
14631.1
14229.4
13755.9
13210.6
12593.8
11906.4
11149.8
10326.3
9438.47
8489.89
7484.75
6428.12
5325.85
4184.69
3012.2
1816.71
607.149
391.584
1173.2
1950.22
2719.78
3479.27
4226.38
4959.13
5675.81
6374.96
7055.29
7715.63
8354.82
8971.73
9565.13
10133.7
10676
11190.4
11675
12128.1
12547.4
12930.8
13275.7
13579.7
13840.2
14054.6
14220.3
14334.6
14395
14399.1
14344.6
14229.4
14051.6
13809.9
13502.8
13129.6
12689.9
12183.5
11611
10973.4
10272.2
9509.55
8688.16
7811.46
6883.53
5909.16
4893.87
3843.88
2766.07
1667.92
557.362
354.529
1062.33
1766.42
2464.44
3154.21
3833.76
4501.33
5155.37
5794.48
6417.4
7022.94
7609.93
8177.18
8723.47
9247.45
9747.68
10222.6
10670.4
11089.2
11477.2
11832
12151.4
12433.1
12674.7
12873.7
13027.6
13134
13190.6
13195.1
13145.5
13039.8
12876.3
12653.8
12371
12027.3
11622.3
11156.1
10629.2
10042.8
9398.16
8697.54
7943.58
7139.51
6289.21
5397.16
4468.46
3508.79
2524.39
1521.95
508.546
318.698
955.075
1588.42
2216.8
2838.39
3451.52
4054.64
4646.35
5225.37
5790.49
6340.57
6874.45
7390.97
7888.92
8366.99
8823.76
9257.73
9667.24
10050.5
10405.7
10730.7
11023.4
11281.7
11503.4
11686.1
11827.6
11925.6
11978.1
11982.9
11938.1
11842.1
11693.3
11490.4
11232.6
10919.2
10550
10125.1
9644.99
9110.78
8523.94
7886.47
7200.88
6470.23
5698.11
4888.64
4046.49
3176.8
2285.17
1377.57
460.275
283.752
850.423
1414.62
1974.74
2529.27
3076.78
3615.93
4145.5
4664.31
5171.26
5665.26
6145.22
6610.04
7058.55
7489.51
7901.58
8293.35
8663.26
9009.67
9330.81
9624.85
9889.83
10123.8
10324.6
10490.2
10618.7
10707.8
10755.8
10760.7
10720.8
10634.6
10500.7
10318.1
10085.9
9803.55
9470.93
9088.19
8655.9
8175.03
7647
7073.68
6457.39
5800.95
5107.63
4381.18
3625.79
2846.08
2047.02
1233.9
412.253
249.442
747.647
1243.83
1736.68
2224.93
2707.38
3182.89
3650.39
4108.84
4557.24
4994.59
5419.9
5832.14
6230.23
6613.01
6979.27
7327.68
7656.83
7965.23
8251.26
8513.26
8749.48
8958.1
9137.29
9285.19
9399.96
9479.79
9522.93
9527.74
9492.7
9416.43
9297.77
9135.75
8929.66
8679.06
8383.82
8044.13
7660.53
7233.95
6765.68
6257.43
5711.31
5129.87
4516.02
3873.12
3204.89
2515.39
1809
1090.36
364.284
215.586
646.207
1075.19
1501.45
1923.97
2341.74
2753.79
3159.22
3557.11
3946.59
4326.78
4696.78
5055.66
5402.46
5736.13
6055.57
6359.61
6646.98
6916.35
7166.28
7395.3
7601.86
7784.36
7941.19
8070.71
8171.3
8241.37
8279.41
8283.97
8253.72
8187.49
8084.25
7943.18
7763.66
7545.35
7288.14
6992.24
6658.14
6286.68
5879.03
5436.71
4961.58
4455.89
3922.2
3363.44
2782.85
2183.95
1570.53
946.572
316.237
182.048
545.703
908.045
1268.21
1625.36
1978.67
2327.36
2670.65
3007.78
3338
3660.55
3974.66
4279.51
4574.26
4858
5129.77
5388.55
5633.24
5862.69
6075.66
6270.87
6446.99
6602.66
6736.48
6847.05
6932.99
6992.94
7025.6
7029.76
7004.27
6948.13
6860.49
6740.65
6588.1
6402.56
6183.96
5932.49
5648.59
5332.99
4986.72
4611.08
4207.69
3778.46
3325.58
2851.56
2359.14
1851.3
1331.23
802.318
268.038
148.73
445.846
741.934
1036.32
1328.33
1617.33
1902.68
2183.74
2459.91
2730.56
2995.06
3252.77
3503
3745.05
3978.17
4201.54
4414.3
4615.56
4804.33
4979.59
5140.29
5285.31
5413.53
5523.79
5614.93
5685.81
5735.32
5762.37
5765.97
5745.19
5699.21
5627.31
5528.94
5403.69
5251.33
5071.81
4865.31
4632.21
4373.11
4088.87
3780.58
3449.58
3097.45
2726
2337.28
1933.54
1517.24
1090.97
657.497
219.653
115.56
346.423
576.514
805.324
1032.35
1257.1
1479.09
1697.83
1912.85
2123.66
2329.76
2530.65
2725.78
2914.61
3096.52
3270.88
3437.02
3594.2
3741.67
3878.63
4004.23
4117.6
4217.86
4304.1
4375.41
4430.9
4469.68
4490.94
4493.87
4477.75
4441.95
4385.91
4309.21
4211.52
4092.67
3952.63
3791.55
3609.73
3407.65
3186
2945.62
2687.56
2413.08
2123.58
1820.67
1506.1
1181.78
849.738
512.101
171.078
82.4869
247.281
411.539
574.905
737.028
897.561
1056.16
1212.49
1366.19
1516.94
1664.36
1808.09
1947.75
2082.93
2213.19
2338.08
2457.1
2569.73
2675.41
2773.58
2863.63
2944.92
3016.82
3078.68
3129.84
3169.66
3197.52
3212.82
3214.98
3203.5
3177.9
3137.81
3082.91
3012.99
2927.91
2827.66
2712.35
2582.2
2437.55
2278.91
2106.88
1922.23
1725.84
1518.73
1302.04
1077.05
845.094
607.635
366.19
122.333
49.4727
148.312
246.836
344.833
442.096
538.42
633.599
727.43
819.708
910.224
998.764
1085.11
1169.01
1250.24
1328.53
1403.6
1475.16
1542.88
1606.43
1665.47
1719.63
1768.53
1811.79
1849.01
1879.79
1903.77
1920.54
1929.76
1931.09
1924.2
1908.84
1884.75
1851.77
1809.75
1758.62
1698.38
1629.09
1550.88
1463.97
1368.65
1265.3
1154.37
1036.4
912.003
781.863
646.739
507.447
364.856
219.877
73.4536
16.4903
49.4359
82.277
114.944
147.368
179.482
211.216
242.504
273.277
303.465
332.998
361.799
389.792
416.894
443.017
468.067
491.945
514.546
535.757
555.463
573.54
589.862
604.3
616.723
627
635.002
640.601
643.678
644.12
641.822
636.692
628.654
617.644
603.62
586.557
566.453
543.33
517.234
488.235
456.434
421.954
384.95
345.599
304.107
260.704
215.642
169.194
121.648
73.309
24.4899
-16.4823
-49.4118
-82.2368
-114.888
-147.297
-179.395
-211.114
-242.387
-273.144
-303.317
-332.834
-361.621
-389.599
-416.687
-442.795
-467.833
-491.699
-514.289
-535.491
-555.189
-573.26
-589.579
-604.016
-616.44
-626.721
-634.729
-640.337
-643.426
-643.881
-641.6
-636.489
-628.472
-617.485
-603.485
-586.448
-566.371
-543.274
-517.203
-488.23
-456.452
-421.993
-385.006
-345.669
-304.187
-260.788
-215.723
-169.266
-121.705
-73.346
-24.5027
-49.4648
-148.289
-246.796
-344.777
-442.025
-538.334
-633.498
-727.314
-819.577
-910.078
-998.603
-1084.93
-1168.82
-1250.04
-1328.31
-1403.37
-1474.91
-1542.62
-1606.17
-1665.2
-1719.35
-1768.25
-1811.5
-1848.72
-1879.52
-1903.49
-1920.28
-1929.51
-1930.85
-1923.98
-1908.63
-1884.57
-1851.61
-1809.62
-1758.51
-1698.3
-1629.03
-1550.85
-1463.97
-1368.67
-1265.34
-1154.43
-1036.47
-912.082
-781.946
-646.819
-507.519
-364.912
-219.913
-73.4662
-82.4792
-247.258
-411.5
-574.851
-736.959
-897.477
-1056.06
-1212.37
-1366.07
-1516.79
-1664.2
-1807.92
-1947.57
-2082.73
-2212.98
-2337.85
-2456.86
-2569.48
-2675.16
-2773.32
-2863.35
-2944.64
-3016.54
-3078.4
-3129.57
-3169.4
-3197.27
-3212.57
-3214.75
-3203.28
-3177.7
-3137.63
-3082.76
-3012.85
-2927.8
-2827.58
-2712.29
-2582.16
-2437.55
-2278.93
-2106.92
-1922.28
-1725.9
-1518.8
-1302.13
-1077.13
-845.165
-607.691
-366.226
-122.345
-115.553
-346.4
-576.476
-805.272
-1032.28
-1257.02
-1478.99
-1697.72
-1912.72
-2123.52
-2329.61
-2530.48
-2725.6
-2914.41
-3096.31
-3270.66
-3436.78
-3593.96
-3741.42
-3878.37
-4003.96
-4117.34
-4217.59
-4303.83
-4375.14
-4430.64
-4469.43
-4490.7
-4493.64
-4477.54
-4441.76
-4385.74
-4309.05
-4211.39
-4092.56
-3952.55
-3791.5
-3609.7
-3407.65
-3186.01
-2945.65
-2687.62
-2413.14
-2123.66
-1820.75
-1506.18
-1181.85
-849.792
-512.136
-171.09
-148.723
-445.825
-741.899
-1036.27
-1328.27
-1617.25
-1902.59
-2183.64
-2459.79
-2730.43
-2994.91
-3252.61
-3502.83
-3744.87
-3977.97
-4201.32
-4414.08
-4615.32
-4804.08
-4979.34
-5140.04
-5285.06
-5413.27
-5523.53
-5614.67
-5685.56
-5735.07
-5762.14
-5765.75
-5744.99
-5699.02
-5627.14
-5528.79
-5403.56
-5251.22
-5071.73
-4865.26
-4632.18
-4373.1
-4088.88
-3780.61
-3449.63
-3097.51
-2726.07
-2337.35
-1933.62
-1517.3
-1091.03
-657.531
-219.665
-182.041
-545.684
-908.012
-1268.16
-1625.3
-1978.6
-2327.28
-2670.55
-3007.67
-3337.88
-3660.42
-3974.51
-4279.35
-4574.08
-4857.81
-5129.57
-5388.34
-5633.02
-5862.46
-6075.42
-6270.63
-6446.75
-6602.41
-6736.23
-6846.81
-6932.75
-6992.71
-7025.38
-7029.54
-7004.07
-6947.95
-6860.33
-6740.5
-6587.98
-6402.46
-6183.88
-5932.43
-5648.56
-5332.98
-4986.73
-4611.11
-4207.74
-3778.51
-3325.65
-2851.63
-2359.21
-1851.36
-1331.28
-802.35
-268.05
-215.58
-646.189
-1075.16
-1501.41
-1923.92
-2341.67
-2753.72
-3159.13
-3557.01
-3946.47
-4326.65
-4696.64
-5055.51
-5402.29
-5735.95
-6055.39
-6359.41
-6646.78
-6916.13
-7166.06
-7395.07
-7601.63
-7784.13
-7940.96
-8070.48
-8171.07
-8241.15
-8279.2
-8283.77
-8253.54
-8187.32
-8084.09
-7943.04
-7763.54
-7545.25
-7288.07
-6992.18
-6658.11
-6286.67
-5879.04
-5436.73
-4961.62
-4455.94
-3922.26
-3363.51
-2782.91
-2184.01
-1570.57
-946.602
-316.247
-249.437
-747.631
-1243.8
-1736.64
-2224.88
-2707.32
-3182.82
-3650.31
-4108.75
-4557.13
-4994.47
-5419.77
-5832
-6230.08
-6612.85
-6979.09
-7327.5
-7656.64
-7965.03
-8251.06
-8513.05
-8749.26
-8957.88
-9137.07
-9284.98
-9399.75
-9479.58
-9522.73
-9527.55
-9492.52
-9416.27
-9297.63
-9135.62
-8929.55
-8678.97
-8383.75
-8044.07
-7660.5
-7233.93
-6765.68
-6257.45
-5711.35
-5129.91
-4516.08
-3873.18
-3204.95
-2515.45
-1809.05
-1090.39
-364.293
-283.747
-850.409
-1414.59
-1974.7
-2529.22
-3076.72
-3615.87
-4145.43
-4664.23
-5171.17
-5665.16
-6145.11
-6609.92
-7058.41
-7489.36
-7901.43
-8293.18
-8663.09
-9009.49
-9330.63
-9624.65
-9889.63
-10123.6
-10324.4
-10490
-10618.5
-10707.6
-10755.6
-10760.5
-10720.6
-10634.4
-10500.6
-10318
-10085.8
-9803.46
-9470.86
-9088.14
-8655.87
-8175.02
-7647
-7073.69
-6457.42
-5800.99
-5107.68
-4381.23
-3625.84
-2846.13
-2047.06
-1233.92
-412.262
-318.694
-955.063
-1588.4
-2216.77
-2838.36
-3451.47
-4054.58
-4646.29
-5225.3
-5790.41
-6340.48
-6874.35
-7390.86
-7888.8
-8366.86
-8823.63
-9257.59
-9667.09
-10050.4
-10405.5
-10730.5
-11023.2
-11281.6
-11503.2
-11685.9
-11827.4
-11925.4
-11977.9
-11982.7
-11938
-11841.9
-11693.1
-11490.3
-11232.5
-10919.2
-10549.9
-10125
-9644.95
-9110.76
-8523.94
-7886.48
-7200.91
-6470.27
-5698.15
-4888.69
-4046.54
-3176.84
-2285.2
-1377.59
-460.282
-354.526
-1062.32
-1766.4
-2464.42
-3154.18
-3833.72
-4501.29
-5155.32
-5794.42
-6417.33
-7022.86
-7609.84
-8177.09
-8723.37
-9247.34
-9747.56
-10222.4
-10670.2
-11089.1
-11477
-11831.8
-12151.2
-12433
-12674.5
-12873.5
-13027.4
-13133.9
-13190.5
-13195
-13145.4
-13039.6
-12876.2
-12653.7
-12370.9
-12027.2
-11622.2
-11156
-10629.2
-10042.7
-9398.15
-8697.55
-7943.6
-7139.54
-6289.24
-5397.2
-4468.5
-3508.83
-2524.42
-1521.97
-508.553
-391.582
-1173.19
-1950.21
-2719.76
-3479.24
-4226.35
-4959.09
-5675.77
-6374.92
-7055.24
-7715.57
-8354.76
-8971.65
-9565.05
-10133.6
-10675.9
-11190.3
-11674.9
-12128
-12547.3
-12930.6
-13275.5
-13579.6
-13840.1
-14054.5
-14220.2
-14334.5
-14394.9
-14399
-14344.5
-14229.3
-14051.5
-13809.8
-13502.7
-13129.6
-12689.8
-12183.5
-11611
-10973.4
-10272.2
-9509.55
-8688.17
-7811.48
-6883.55
-5909.19
-4893.9
-3843.91
-2766.09
-1667.93
-557.368
-430.327
-1289.03
-2142
-2985.7
-3817
-4633.23
-5432.15
-6211.96
-6971.16
-7708.52
-8422.91
-9113.31
-9778.65
-10417.8
-11029.5
-11612.2
-12164.5
-12684.5
-13170.3
-13619.5
-14030
-14399.1
-14724.2
-15002.7
-15231.7
-15408.4
-15530
-15593.8
-15597.3
-15537.9
-15413.5
-15221.9
-14961.6
-14631
-14229.3
-13755.9
-13210.6
-12593.8
-11906.3
-11149.8
-10326.3
-9438.47
-8489.89
-7484.77
-6428.13
-5325.87
-4184.71
-3012.22
-1816.72
-607.153
-471.411
-1411.75
-2344.82
-3266.21
-4172.17
-5059.6
-5926.05
-6769.66
-7589.01
-8382.97
-9150.63
-9891.11
-10603.5
-11286.9
-11940
-12561.6
-13150.1
-13703.7
-14220.4
-14698
-15134.1
-15526
-15871
-16166.3
-16408.9
-16595.9
-16724.3
-16791.3
-16794
-16729.8
-16596.3
-16391.4
-16113.2
-15760.1
-15331
-14825.1
-14242.1
-13582.4
-12846.6
-12036.2
-11153
-10199.9
-9180.12
-8098.08
-6958.93
-5768.82
-4534.97
-3265.66
-1970.14
-658.524
-515.756
-1544.04
-2562.91
-3566.83
-4551.25
-5512.61
-6448.34
-7356.62
-8236.23
-9086.34
-9906.32
-10695.6
-11453.5
-12179.4
-12872.2
-13530.7
-14153.5
-14738.8
-15284.7
-15788.9
-16249
-16662.2
-17025.8
-17336.8
-17592
-17788.5
-17923.1
-17992.8
-17994.6
-17925.8
-17783.7
-17566
-17270.7
-16896.1
-16440.7
-15903.8
-15284.8
-14583.7
-13801.3
-12938.4
-11997.1
-10979.7
-9889.53
-8730.71
-7508.42
-6229
-4900.04
-3530.52
-2130.79
-712.373
-564.705
-1689.8
-2802.38
-3895.4
-4963.31
-6002.17
-7009.36
-7983.36
-8923.36
-9829.02
-10700.2
-11536.7
-12338.4
-13104.8
-13835.2
-14528.5
-15183.6
-15798.6
-16371.8
-16900.8
-17383.1
-17816.1
-18196.9
-18522.3
-18789.2
-18994.3
-19134.6
-19206.6
-19207.5
-19134.1
-18983.8
-18754
-18442.5
-18047.5
-17567.3
-17000.9
-16347.6
-15607.1
-14779.8
-13866.5
-12868.6
-11788.2
-10628.3
-9392.7
-8086.27
-6715.28
-5287.58
-3812.8
-2302.5
-770.02
-620.276
-1854.84
-3072.24
-4263.29
-5421.36
-6542.19
-7623.49
-8664.35
-9664.77
-10625.2
-11546.1
-12428.1
-13271.5
-14076.2
-14841.9
-15567.8
-16252.8
-16895.3
-17493.6
-18045.4
-18548.2
-18999.4
-19395.8
-19734.3
-20011.8
-20224.9
-20370.1
-20444.2
-20444
-20366.3
-20208.3
-19967.2
-19640.6
-19226.5
-18723.1
-18129
-17443.3
-16665.5
-15795.5
-14833.8
-13781.2
-12639.4
-11410.7
-10098.2
-8706.18
-7240.49
-5708.85
-4121.39
-2491.03
-833.461
-685.627
-2048.17
-3386.15
-4687.48
-5944.35
-7152.67
-8311.08
-9419.93
-10480.5
-11494.5
-12463.4
-13388.7
-14271.3
-15111.8
-15910.2
-16666
-17378.5
-18046.2
-18667.4
-19239.9
-19761.3
-20228.7
-20639.3
-20989.7
-21276.7
-21496.7
-21646.4
-21722.3
-21721
-21639.3
-21474.1
-21222.5
-20882
-20450.3
-19925.3
-19305.6
-18589.9
-17777.2
-16867.1
-15859.4
-14754.5
-13553.2
-12256.8
-10867.3
-9387.99
-7823.44
-6180.68
-4469.88
-2705.32
-905.838
-765.96
-2284.35
-3765.73
-5194.05
-6560.79
-7863.1
-9101.74
-10279.3
-11399.3
-12465
-13479.6
-14445.4
-15364.4
-16237.7
-17066
-17849
-18586.2
-19276.5
-19918.1
-20509.1
-21047
-21529
-21952.1
-22313
-22608.3
-22834.6
-22988.1
-23065.5
-23063.1
-22977.7
-22805.9
-22544.9
-22191.7
-21744.1
-21199.6
-20556.6
-19813.3
-18968.5
-18021.3
-16970.7
-15816.5
-14558.1
-13195.7
-11729.6
-10161
-8492.52
-6729.08
-4879.82
-2959.92
-992.34
-870.463
-2588.41
-4246.74
-5824.75
-7314.99
-8718.37
-10039.9
-11286.2
-12463.9
-13578.8
-14635.8
-15638.8
-16590.8
-17493.6
-18348.4
-19155.5
-19914.5
-20624.6
-21284.2
-21891.3
-22443.5
-22938.2
-23372.1
-23742.1
-24044.7
-24276.2
-24433.1
-24511.6
-24508.2
-24419.4
-24241.9
-23972.4
-23608.1
-23146.3
-22584.6
-21920.8
-21152.9
-20279.3
-19298.4
-18208.7
-17008.7
-15696.7
-14270.9
-12729.4
-11070.1
-9291.96
-7395.73
-5386.93
-3279.79
-1102.14
-1016.96
-3006.41
-4891.79
-6649.52
-8278.93
-9789.94
-11195.7
-12509
-13741.2
-14901.3
-15996.7
-17032.8
-18013.7
-18942.2
-19820
-20647.7
-21425.4
-22152.4
-22827.2
-23447.9
-24012.3
-24517.6
-24960.7
-25338.3
-25646.9
-25882.9
-26042.5
-26121.9
-26117.7
-26026
-25843.5
-25566.8
-25192.9
-24719
-24142.4
-23460.6
-22671.5
-21772.8
-20762.4
-19638
-18396.8
-17035.8
-15550.8
-13936.5
-12186.7
-10293.7
-8250.52
-6053.76
-3711.01
-1253.07
-1244.8
-3631.08
-5817.95
-7792.59
-9576.39
-11198.7
-12686.7
-14062.8
-15344.2
-16544.1
-17672.6
-18736.8
-19742
-20691.8
-21588.5
-22433.2
-23226.1
-23966.8
-24654
-25285.8
-25860
-26373.9
-26824.4
-27208.2
-27521.6
-27761.1
-27922.9
-28003.1
-27998
-27904
-27717.4
-27434.8
-27053.1
-26569.2
-25980.4
-25283.9
-24477.1
-23557.5
-22522.4
-21368.5
-20092.2
-18688.3
-17150.2
-15468.8
-13631.4
-11621.4
-9417.64
-6997.38
-4346.26
-1484.46
-1656.92
-4668.64
-7261.59
-9491.14
-11437.6
-13167.7
-14730.5
-16160.9
-17483.5
-18716
-19870.9
-20957.2
-21981.4
-22947.7
-23859
-24716.7
-25521.3
-26272.5
-26969
-27609.3
-28190.9
-28711.3
-29167.4
-29555.7
-29872.9
-30115
-30278.4
-30359.2
-30353.5
-30257.6
-30067.8
-29780.8
-29393.1
-28901.6
-28303.4
-27595.5
-26775.2
-25839.4
-24785
-23608
-22303.5
-20864.8
-19282.7
-17543.5
-15627.5
-13505.4
-11134.3
-8454.13
-5391.77
-1899.24
-2582.28
-6628.7
-9742.91
-12243.2
-14340.4
-16161.3
-17783
-19254.3
-20607
-21862.6
-23036.1
-24137.8
-25175
-26152.6
-27073.8
-27940.3
-28752.8
-29511
-30213.8
-30859.7
-31446.4
-31971.1
-32430.9
-32822.4
-33142
-33385.9
-33550.4
-33631.5
-33625.3
-33528.2
-33336.3
-33046.2
-32654.5
-32157.8
-31553.3
-30837.7
-30008.1
-29061.3
-27993.6
-26800.5
-25476.4
-24013.1
-22399
-20616.6
-18639.1
-16423.3
-13898.3
-10944.2
-7357.13
-2826.38
-5306.52
-10890.9
-14522.4
-17231.2
-19427.6
-21302.8
-22957.8
-24451.3
-25819.9
-27087.6
-28270.6
-29380.2
-30424.1
-31407.4
-32333.6
-33204.6
-34021
-34782.8
-35488.8
-36137.5
-36726.7
-37253.6
-37715.3
-38108.3
-38429.1
-38674
-38839
-38920.2
-38913.9
-38816.1
-38623.2
-38331.5
-37937.7
-37438.5
-36830.7
-36111.2
-35277
-34324.5
-33250.1
-32048.8
-30714.5
-29238.4
-27607.4
-25801.7
-23789.6
-21518.1
-18892.4
-15728.1
-11622
-5551.51
2590.46
6652.38
9780.87
12294.3
14403.8
16236.1
17868.6
19350
20712.1
21976.7
23158.6
24268.2
25312.8
26297.4
27225.1
28097.7
28915.8
29679.3
30387
31037.2
31627.9
32156.1
32619
33013
33334.7
33580.2
33745.7
33827.2
33820.9
33723
33529.7
33237.4
32842.8
32342.6
31733.7
31013.1
30177.6
29224
28148.7
26947.2
25613.7
24140.1
22514.9
20720.5
18729.9
16500.2
13960.2
10989.9
7385.53
2836.13
1908.66
5276.79
8084.67
10442.4
12469
14253
15854.7
17314.9
18661.7
19914.4
21086.9
22188.7
23226.7
24205.6
25128.3
25996.5
26810.6
27570.5
28275
28922.5
29510.6
30036.6
30497.6
30890.1
31210.6
31455.2
31620.1
31701.5
31695.4
31598.1
31405.8
31115.1
30722.6
30225
29619.3
28902.5
28071.7
27123.7
26055.1
24861.7
23538.2
22077.2
20468.3
18696.2
16737.8
14557.8
12102.2
9289.35
6007.29
2153.45
1450.13
4177.03
6605.88
8744.6
10640.5
12342
13888.6
15309.7
16627.3
17857.4
19011.6
20098.2
21123.3
22090.9
23003.7
23863.1
24669.4
25422.2
26120.4
26762.2
27345.3
27867
28324.3
28713.7
29031.6
29274.5
29438.3
29519.3
29513.7
29417.6
29227.5
28939.8
28551.4
28058.9
27459.6
26750.5
25928.8
24991.9
23936.5
22759
21454.8
20018
18440.1
16709.3
14808.7
12714.1
10392.3
7801.78
4902.21
1693.14
1166.98
3426.6
5526.98
7446.68
9196.62
10798.4
12274.1
13643
14920.6
16118.8
17246.8
18311.5
19317.7
20268.9
21167.2
22013.6
22808.2
23550.6
24239.4
24872.8
25448.4
25963.6
26415.2
26800
27114.3
27354.5
27516.7
27597.2
27592.1
27497.9
27310.9
27027.8
26645.3
26160.5
25570.5
24872.7
24064.6
23143.8
22107.5
20953
19676.6
18273.9
16739
15063.9
13237.9
11247.4
9076.3
6709.72
4143.79
1407.31
982.517
2910.97
4749.8
6474.86
8082.46
9579.42
10976.5
12284.7
13514.2
14673.2
15768.6
16805.4
17787.5
18717.4
19596.7
20426.2
21205.6
21934.2
22610.6
23232.9
23798.7
24305.3
24749.5
25128.1
25437.5
25674.1
25834.2
25913.9
25909.7
25817.9
25635
25357.7
24983.1
24508.2
23930.4
23247.4
22456.9
21556.8
20545.2
19419.8
18178.3
16817.8
15334.8
13724.9
11982.8
10102.8
8080.32
5915.01
3617.53
1219.29
853.437
2539.94
4172.57
5731.25
7207.85
8602.06
9917.83
11160.8
12336.8
13451.2
14508.5
15512.5
16465.7
17370.1
18226.5
19035.3
19796
20507.8
21168.9
21777.6
22331.2
22827.1
23262.2
23633.1
23936.5
24168.7
24326
24404.8
24401.4
24312.5
24134.6
23864.5
23499.4
23036.7
22473.8
21808.6
21039.4
20164.4
19182.1
18091.3
16890.5
15578.5
14153.7
12614.7
10960.3
9190.29
7306.59
5315.91
3233.24
1085.76
756.989
2258.46
3725.44
5142.45
6500.91
7797.56
9032.62
10208.3
11327.5
12393.3
13408.5
14375.4
15295.8
16170.7
17000.6
17785.3
18524.2
19216.1
19859.3
20451.8
20991.1
21474.3
21898.5
22260.3
22556.5
22783.3
22937.3
23014.9
23012.6
22927
22754.9
22493.2
22139.3
21690.7
21145.1
20500.7
19756
18909.8
17961.1
16909.2
15753.9
14494.9
13132.6
11667.7
10101.8
8437.96
6681.71
4842.6
2935.89
983.992
680.789
2034.11
3364.08
4658.98
5911.08
7116.16
8272.64
9380.6
10441.1
11455.6
12425.5
13352
14236.1
15078.2
15878.2
16635.8
17349.9
18019.2
18641.9
19215.9
19738.6
20207.3
20618.9
20970.2
21258
21478.6
21628.8
21704.9
21703.6
21621.7
21456.1
21204
20862.7
20430
19904
19283
18565.8
17751.6
16839.9
15830.8
14724.6
13522.2
12225.2
10835.9
9357.6
7795.31
6156.26
4450.78
2693.07
901.602
617.72
1847.4
3060.52
4248.15
5403.73
6522.99
7603.52
8644.3
9645.16
10606.4
11528.6
12412
13256.9
14063.2
14830.5
15558.1
16244.7
16888.8
17488.6
18041.8
18545.9
18998.2
19395.6
19735.1
20013.3
20227
20372.6
20447
20446.8
20368.9
20210.5
19968.9
19641.5
19226.5
18721.9
18126.6
17439.4
16660.1
15788.5
14825.2
13771.1
12627.9
11398.1
10085
8692.87
7227.82
5697.64
4112.53
2485.32
831.484
563.47
1686.21
2796.77
3888.24
4955.16
5993.55
7000.79
7975.26
8916.1
9822.87
10695.4
11533.4
12336.6
13104.6
13836.6
14531.6
15188.2
15804.8
16379.4
16909.7
17393.3
17827.5
18209.2
18535.5
18803.1
19008.8
19149.4
19221.7
19222.6
19149.1
18998.4
18768.1
18455.9
18059.9
17578.7
17011
16356.2
15614.2
14785.2
13870.2
12870.7
11788.7
10627.4
9390.59
8083.3
6711.87
5284.2
3809.93
2300.58
769.34
515.309
1542.77
2560.99
3564.54
4548.9
5510.54
6446.86
7356
8236.71
9088.1
9909.49
10700.3
11459.8
12187.2
12881.6
13541.7
14166
14752.8
15300.1
15805.6
16266.9
16681.2
17045.7
17357.5
17613.5
17810.5
17945.5
18015.4
18017.2
17948.2
17805.8
17587.6
17291.6
16916
16459.6
15921.4
15301
14598.5
13814.3
12949.8
12006.7
10987.6
9895.75
8735.39
7511.74
6231.18
4901.34
3531.21
2131.09
712.454
471.438
1411.87
2345.13
3266.88
4173.38
5061.55
5928.94
6773.66
7594.26
8389.6
9158.72
9900.72
10614.7
11299.6
11954.3
12577.4
13167.3
13722.3
14240.4
14719.2
15156.4
15549.3
15895.3
16191.4
16434.6
16622.1
16750.9
16818
16820.7
16756.4
16622.7
16417.3
16138.3
15784.4
15354.2
14847.1
14262.8
13601.6
12864.2
12052
11167.1
10212.1
9190.61
8106.82
6965.99
5774.32
4539.04
3268.44
1971.75
659.05
430.635
1289.98
2143.65
2988.14
3820.34
4637.59
5437.66
6218.72
6979.26
7718.03
8433.89
9125.78
9792.62
10433.3
11046.4
11630.6
12184.3
12705.6
13192.6
13643
14054.6
14424.6
14750.7
15029.9
15259.5
15436.6
15558.6
15622.6
15626.1
15566.6
15441.8
15249.8
14988.8
14657.5
14254.8
13780.2
13233.6
12615.3
11926.3
11168.1
10342.8
9453.19
8502.76
7495.77
6437.3
5333.24
4190.34
3016.18
1819.07
607.93
392.049
1174.61
1952.6
2723.19
3483.78
4232.06
4966.05
5684.04
6384.55
7066.28
7728.04
8368.67
8987.01
9581.83
10151.8
10695.4
11211.1
11697
12151.3
12571.7
12956
13301.8
13606.7
13867.9
14082.9
14249
14363.6
14424.2
14428.3
14373.6
14258.2
14080
13837.6
13529.8
13155.7
12714.9
12207.3
11633.4
10994.3
10291.5
9527.15
8703.99
7825.45
6895.64
5919.38
4902.2
3850.32
2770.65
1670.66
558.272
355.073
1063.97
1769.18
2468.34
3159.3
3840.07
4508.92
5164.26
5804.7
6428.98
7035.88
7624.23
8192.84
8740.46
9265.74
9767.23
10243.3
10692.3
11112.3
11501.2
11856.9
12177.2
12459.7
12701.9
12901.4
13055.7
13162.4
13219.2
13223.8
13174
13068
12904.2
12681
12397.5
12053
11647
11179.6
10651.5
10063.6
9417.5
8715.27
7959.59
7153.75
6301.61
5407.69
4477.09
3515.51
2529.19
1524.83
509.504
319.269
956.791
1591.29
2220.85
2843.64
3457.98
4062.34
4655.32
5235.61
5802.02
6353.37
6888.53
7406.31
7905.49
8384.76
8842.7
9277.78
9688.36
10072.6
10428.7
10754.6
11048.1
11307.1
11529.4
11712.5
11854.4
11952.7
12005.3
12010.1
11965.3
11869
11719.8
11516.5
11258
10943.8
10573.7
10147.7
9666.4
9130.89
8542.63
7903.64
7216.45
6484.12
5710.24
4898.98
4054.99
3183.43
2289.92
1380.42
461.226
284.314
852.112
1417.44
1978.7
2534.38
3083.06
3623.39
4154.14
4674.15
5182.28
5677.46
6158.59
6624.56
7074.2
7506.25
7919.38
8312.16
8683.04
9030.35
9352.35
9647.16
9912.85
10147.4
10348.8
10514.9
10643.6
10733
10781.1
10786
10746
10659.6
10525.4
10342.3
10109.5
9826.48
9493.02
9109.31
8675.94
8193.87
7664.54
7089.82
6472.05
5814.05
5119.11
4390.98
3633.86
2852.39
2051.54
1236.62
413.161
249.971
749.237
1246.48
1740.4
2229.72
2713.25
3189.85
3658.43
4117.96
4567.43
5005.86
5432.22
5845.49
6244.59
6628.36
6995.56
7344.87
7674.89
7984.1
8270.89
8533.58
8770.43
8979.6
9159.27
9307.57
9422.65
9502.7
9545.96
9550.79
9515.66
9439.2
9320.24
9157.8
8951.18
8699.93
8403.94
8063.38
7678.81
7251.15
6781.72
6272.21
5724.75
5141.89
4526.57
3882.14
3212.33
2521.21
1813.18
1092.87
365.122
216.066
647.649
1077.59
1504.82
1928.31
2347.04
2760.07
3166.45
3565.31
3955.74
4336.87
4707.8
5067.59
5415.28
5749.81
6070.08
6374.92
6663.04
6933.12
7183.71
7413.34
7620.45
7803.44
7960.69
8090.55
8191.41
8261.68
8299.82
8304.4
8274.08
8207.68
8104.17
7962.73
7782.75
7563.87
7306
7009.34
6674.39
6301.99
5893.31
5449.87
4973.56
4466.62
3931.62
3371.5
2789.5
2189.16
1574.27
948.823
316.988
182.468
546.964
910.147
1271.15
1629.14
1983.3
2332.82
2676.94
3014.9
3345.94
3669.31
3984.21
4289.84
4585.34
4869.82
5142.3
5401.76
5647.1
5877.15
6090.68
6286.42
6463.01
6619.09
6753.27
6864.14
6950.31
7010.42
7043.18
7047.34
7021.79
6965.51
6877.64
6757.49
6604.55
6418.52
6199.36
5947.23
5662.6
5346.2
4999.05
4622.46
4218.05
3787.73
3333.73
2858.54
2364.9
1855.81
1334.48
804.27
268.69
149.082
446.902
743.694
1038.78
1331.5
1621.2
1907.24
2189
2465.85
2737.18
3002.35
3260.72
3511.59
3754.27
3987.99
4211.95
4425.28
4627.06
4816.33
4992.06
5153.19
5298.6
5427.16
5537.71
5629.1
5700.17
5749.81
5776.94
5780.55
5759.72
5713.61
5641.53
5542.9
5417.33
5264.57
5084.59
4877.55
4643.84
4384.08
4099.11
3790.03
3458.19
3105.16
2732.78
2343.08
1938.34
1521
1093.67
659.123
220.196
115.838
347.258
577.905
807.271
1034.85
1260.16
1482.69
1701.98