/*--------------------------------*- C++ -*----------------------------------*\
| =========                 |                                                 |
| \\      /  F ield         | OpenFOAM: The Open Source CFD Toolbox           |
|  \\    /   O peration     | Version:  5.x                                   |
|   \\  /    A nd           | Web:      www.OpenFOAM.org                      |
|    \\/     M anipulation  |                                                 |
\*---------------------------------------------------------------------------*/
FoamFile
{
    version     2.0;
    format      ascii;
    class       volScalarField;
    location    "1.3";
    object      gradTz;
}
// * * * * * * * * * * * * * * * * * * * * * * * * * * * * * * * * * * * * * //

dimensions      [0 -1 0 1 0 0 0];

internalField   nonuniform List<scalar> 
25000
(
-6333.93
-6850.49
-6999.8
-7052.28
-7073.84
-7083.6
-7088.15
-7090.13
-7090.74
-7090.59
-7090
-7089.16
-7088.18
-7087.13
-7086.05
-7084.98
-7083.93
-7082.93
-7081.99
-7081.1
-7080.29
-7079.56
-7078.92
-7078.37
-7077.92
-7077.57
-7077.33
-7077.2
-7077.2
-7077.32
-7077.57
-7077.94
-7078.44
-7079.07
-7079.82
-7080.67
-7081.62
-7082.63
-7083.65
-7084.63
-7085.43
-7085.88
-7085.64
-7084.1
-7080.06
-7070.86
-7049.91
-6998.08
-6849.45
-6333.59
-6850.49
-7839.63
-8182.49
-8317.16
-8375.94
-8403.37
-8416.33
-8421.99
-8423.69
-8423.18
-8421.38
-8418.83
-8415.88
-8412.72
-8409.49
-8406.28
-8403.15
-8400.15
-8397.31
-8394.67
-8392.24
-8390.05
-8388.12
-8386.46
-8385.1
-8384.06
-8383.34
-8382.97
-8382.96
-8383.32
-8384.05
-8385.17
-8386.68
-8388.56
-8390.8
-8393.36
-8396.2
-8399.23
-8402.31
-8405.25
-8407.69
-8409.1
-8408.51
-8404.19
-8392.75
-8367.01
-8310.06
-8177.34
-7836.51
-6849.45
-6999.81
-8182.5
-8628.79
-8816.33
-8902.11
-8943.31
-8963.05
-8971.63
-8974.08
-8973.02
-8969.91
-8965.63
-8960.68
-8955.41
-8950.03
-8944.68
-8939.48
-8934.49
-8929.77
-8925.37
-8921.34
-8917.7
-8914.49
-8911.74
-8909.48
-8907.74
-8906.55
-8905.93
-8905.91
-8906.5
-8907.73
-8909.59
-8912.09
-8915.22
-8918.94
-8923.21
-8927.94
-8932.99
-8938.16
-8943.09
-8947.27
-8949.81
-8949.23
-8942.86
-8925.65
-8887.26
-8804.53
-8620.23
-8177.32
-6998.07
-7052.3
-8317.22
-8816.39
-9035.19
-9138.67
-9189.48
-9214.05
-9224.6
-9227.29
-9225.44
-9220.9
-9214.81
-9207.84
-9200.45
-9192.93
-9185.46
-9178.19
-9171.23
-9164.65
-9158.52
-9152.89
-9147.81
-9143.33
-9139.5
-9136.35
-9133.92
-9132.26
-9131.4
-9131.37
-9132.2
-9133.9
-9136.5
-9139.99
-9144.35
-9149.55
-9155.52
-9162.13
-9169.22
-9176.48
-9183.48
-9189.52
-9193.44
-9193.34
-9185.88
-9164.85
-9117.96
-9018.73
-8804.44
-8309.98
-7049.88
-7073.89
-8376.08
-8902.29
-9138.82
-9253.1
-9310
-9337.55
-9349.11
-9351.54
-9348.6
-9342.49
-9334.52
-9325.52
-9316
-9306.34
-9296.77
-9287.47
-9278.56
-9270.14
-9262.29
-9255.09
-9248.59
-9242.87
-9237.96
-9233.93
-9230.83
-9228.7
-9227.6
-9227.56
-9228.61
-9230.79
-9234.12
-9238.58
-9244.17
-9250.83
-9258.48
-9266.97
-9276.09
-9285.49
-9294.62
-9302.65
-9308.22
-9309.12
-9301.51
-9278.48
-9226.6
-9117.76
-8887.01
-8366.82
-7070.79
-7083.69
-8403.64
-8943.69
-9189.88
-9310.28
-9370.59
-9399.64
-9411.35
-9413.03
-9408.76
-9400.94
-9391.03
-9379.95
-9368.33
-9356.55
-9344.9
-9333.59
-9322.76
-9312.53
-9303
-9294.25
-9286.37
-9279.41
-9273.45
-9268.56
-9264.79
-9262.21
-9260.87
-9260.81
-9262.09
-9264.74
-9268.77
-9274.2
-9280.99
-9289.09
-9298.4
-9308.77
-9319.92
-9331.46
-9342.78
-9352.94
-9360.41
-9362.77
-9355.86
-9332.31
-9278.09
-9164.3
-8925.13
-8392.39
-7079.93
-7088.3
-8416.77
-8963.71
-9214.82
-9338.27
-9400.11
-9429.5
-9440.68
-9441.22
-9435.4
-9425.75
-9413.84
-9400.69
-9386.96
-9373.09
-9359.41
-9346.12
-9333.41
-9321.41
-9310.24
-9299.98
-9290.73
-9282.58
-9275.59
-9269.85
-9265.43
-9262.4
-9260.82
-9260.75
-9262.25
-9265.36
-9270.09
-9276.45
-9284.41
-9293.93
-9304.89
-9317.09
-9330.27
-9343.97
-9357.53
-9369.91
-9379.5
-9383.69
-9378.14
-9355.21
-9300.52
-9184.81
-8941.94
-8403.58
-7083.88
-7090.36
-8422.67
-8972.68
-9225.89
-9350.46
-9412.53
-9441.42
-9451.57
-9450.66
-9443.11
-9431.55
-9417.62
-9402.4
-9386.59
-9370.67
-9354.98
-9339.78
-9325.23
-9311.51
-9298.73
-9287
-9276.43
-9267.1
-9259.11
-9252.55
-9247.49
-9244.02
-9242.22
-9242.14
-9243.85
-9247.39
-9252.8
-9260.07
-9269.19
-9280.09
-9292.65
-9306.67
-9321.84
-9337.7
-9353.51
-9368.2
-9380.06
-9386.38
-9382.68
-9361.16
-9307.27
-9191.57
-8947.78
-8407.57
-7085.31
-7091.08
-8424.68
-8975.63
-9229.26
-9353.71
-9415.16
-9443
-9451.74
-9449.18
-9439.78
-9426.26
-9410.31
-9393.04
-9375.19
-9357.27
-9339.63
-9322.56
-9306.24
-9290.84
-9276.51
-9263.35
-9251.49
-9241.03
-9232.07
-9224.71
-9219.03
-9215.14
-9213.11
-9213.02
-9214.93
-9218.9
-9224.97
-9233.12
-9243.36
-9255.6
-9269.72
-9285.52
-9302.65
-9320.63
-9338.7
-9355.73
-9369.96
-9378.6
-9377.09
-9357.52
-9305.26
-9190.75
-8947.68
-8407.75
-7085.41
-7091.06
-8424.55
-8975.19
-9228.24
-9351.82
-9412.11
-9438.53
-9445.64
-9441.28
-9429.98
-9414.48
-9396.52
-9377.24
-9357.4
-9337.53
-9318.02
-9299.14
-9281.1
-9264.09
-9248.26
-9233.73
-9220.64
-9209.08
-9199.18
-9191.05
-9184.78
-9180.47
-9178.23
-9178.12
-9180.23
-9184.61
-9191.3
-9200.31
-9211.62
-9225.16
-9240.8
-9258.31
-9277.36
-9297.43
-9317.73
-9337.1
-9353.74
-9364.82
-9365.7
-9348.42
-9298.28
-9185.7
-8944.31
-8405.83
-7084.8
-7090.62
-8423.2
-8972.83
-9224.73
-9346.99
-9405.78
-9430.56
-9435.91
-9429.69
-9416.47
-9399.01
-9379.09
-9357.85
-9336.09
-9314.35
-9293.02
-9272.41
-9252.73
-9234.17
-9216.9
-9201.06
-9186.77
-9174.17
-9163.37
-9154.5
-9147.65
-9142.95
-9140.5
-9140.38
-9142.67
-9147.44
-9154.73
-9164.56
-9176.91
-9191.69
-9208.78
-9227.96
-9248.85
-9270.95
-9293.43
-9315.12
-9334.16
-9347.71
-9351.09
-9336.29
-9288.57
-9178.3
-8939.13
-8402.78
-7083.79
-7089.96
-8421.2
-8969.43
-9219.85
-9340.54
-9397.67
-9420.7
-9424.22
-9416.14
-9401.01
-9381.64
-9359.81
-9336.69
-9313.09
-9289.55
-9266.5
-9244.23
-9222.98
-9202.95
-9184.31
-9167.21
-9151.8
-9138.19
-9126.54
-9116.96
-9109.57
-9104.49
-9101.83
-9101.69
-9104.16
-9109.3
-9117.17
-9127.77
-9141.1
-9157.07
-9175.56
-9196.32
-9218.99
-9243.03
-9267.63
-9291.56
-9312.98
-9328.98
-9334.88
-9322.62
-9277.45
-9169.71
-8933.04
-8399.15
-7082.58
-7089.19
-8418.86
-8965.5
-9214.29
-9333.29
-9388.68
-9409.93
-9411.65
-9401.72
-9384.75
-9363.53
-9339.88
-9314.96
-9289.6
-9264.37
-9239.68
-9215.84
-9193.11
-9171.68
-9151.75
-9133.46
-9116.97
-9102.43
-9089.96
-9079.71
-9071.8
-9066.37
-9063.52
-9063.36
-9065.99
-9071.48
-9079.89
-9091.23
-9105.48
-9122.58
-9142.38
-9164.65
-9189.01
-9214.91
-9241.53
-9267.63
-9291.33
-9309.73
-9318.1
-9308.38
-9265.78
-9160.64
-8926.56
-8395.26
-7081.29
-7088.37
-8416.4
-8961.38
-9208.48
-9325.78
-9379.44
-9398.94
-9398.88
-9387.19
-9368.45
-9345.48
-9320.09
-9293.48
-9266.47
-9239.63
-9213.4
-9188.09
-9163.96
-9141.23
-9120.08
-9100.68
-9083.18
-9067.74
-9054.52
-9043.63
-9035.24
-9029.47
-9026.43
-9026.26
-9029.04
-9034.86
-9043.77
-9055.8
-9070.92
-9089.08
-9110.12
-9133.8
-9159.76
-9187.42
-9215.95
-9244.1
-9269.99
-9290.68
-9301.44
-9294.18
-9254.1
-9151.52
-8920.03
-8391.34
-7079.98
-7087.55
-8413.94
-8957.27
-9202.73
-9318.35
-9370.34
-9388.15
-9386.41
-9373.04
-9352.63
-9328.01
-9301
-9272.81
-9244.25
-9215.92
-9188.25
-9161.57
-9136.14
-9112.19
-9089.91
-9069.47
-9051.03
-9034.77
-9020.83
-9009.36
-9000.51
-8994.42
-8991.22
-8991.02
-8993.94
-9000.06
-9009.44
-9022.11
-9038.05
-9057.19
-9079.38
-9104.39
-9131.83
-9161.13
-9191.45
-9221.54
-9249.48
-9272.34
-9285.36
-9280.45
-9242.79
-9142.68
-8913.69
-8387.53
-7078.71
-7086.76
-8411.57
-8953.33
-9197.2
-9311.24
-9361.64
-9377.87
-9374.55
-9359.61
-9337.65
-9311.5
-9282.99
-9253.33
-9223.35
-9193.64
-9164.65
-9136.7
-9110.08
-9085
-9061.67
-9040.27
-9020.97
-9003.95
-8989.35
-8977.34
-8968.07
-8961.68
-8958.32
-8958.11
-8961.16
-8967.56
-8977.37
-8990.62
-9007.31
-9027.35
-9050.61
-9076.84
-9105.65
-9136.47
-9168.45
-9200.32
-9230.18
-9255.06
-9270.2
-9267.48
-9232.09
-9134.3
-8907.68
-8383.91
-7077.5
-7086.02
-8409.36
-8949.64
-9192.04
-9304.61
-9353.54
-9368.3
-9363.53
-9347.14
-9323.76
-9296.21
-9266.33
-9235.33
-9204.05
-9173.08
-9142.88
-9113.79
-9086.07
-9059.97
-9035.69
-9013.41
-8993.33
-8975.6
-8960.41
-8947.9
-8938.25
-8931.59
-8928.09
-8927.86
-8931.02
-8937.67
-8947.87
-8961.66
-8979.02
-8999.89
-9024.12
-9051.46
-9081.52
-9113.73
-9147.23
-9180.74
-9212.34
-9239.08
-9256.16
-9255.47
-9222.17
-9126.52
-8902.09
-8380.55
-7076.38
-7085.35
-8407.34
-8946.27
-9187.32
-9298.55
-9346.14
-9359.58
-9353.49
-9335.8
-9311.14
-9282.33
-9251.21
-9219.01
-9186.56
-9154.46
-9123.18
-9093.05
-9064.35
-9037.33
-9012.19
-8989.13
-8968.33
-8949.98
-8934.25
-8921.3
-8911.29
-8904.4
-8900.76
-8900.51
-8903.78
-8910.65
-8921.2
-8935.47
-8953.45
-8975.06
-9000.15
-9028.49
-9059.68
-9093.14
-9128
-9162.99
-9196.17
-9224.57
-9243.42
-9244.56
-9213.15
-9119.46
-8897.02
-8377.49
-7075.36
-7084.75
-8405.53
-8943.26
-9183.11
-9293.15
-9339.55
-9351.81
-9344.55
-9325.71
-9299.91
-9269.99
-9237.78
-9204.51
-9171.02
-9137.93
-9105.69
-9074.64
-9045.08
-9017.24
-8991.34
-8967.59
-8946.17
-8927.26
-8911.05
-8897.71
-8887.4
-8880.29
-8876.53
-8876.27
-8879.62
-8886.69
-8897.56
-8912.25
-8930.76
-8953.02
-8978.89
-9008.11
-9040.29
-9074.86
-9110.92
-9147.21
-9181.79
-9211.68
-9232.08
-9234.86
-9205.13
-9113.17
-8892.5
-8374.77
-7074.45
-7084.22
-8403.96
-8940.65
-9179.45
-9288.45
-9333.83
-9345.06
-9336.79
-9316.95
-9290.16
-9259.28
-9226.12
-9191.93
-9157.55
-9123.6
-9090.53
-9058.69
-9028.38
-8999.84
-8973.29
-8948.94
-8926.97
-8907.59
-8890.96
-8877.27
-8866.7
-8859.41
-8855.55
-8855.27
-8858.7
-8865.94
-8877.07
-8892.13
-8911.1
-8933.93
-8960.46
-8990.44
-9023.49
-9059
-9096.11
-9133.53
-9169.32
-9200.5
-9222.25
-9226.43
-9198.17
-9107.71
-8888.57
-8372.4
-7073.66
-7083.78
-8402.64
-8938.44
-9176.37
-9284.5
-9329
-9339.38
-9330.26
-9309.58
-9281.97
-9250.27
-9216.32
-9181.36
-9146.23
-9111.56
-9077.79
-9045.29
-9014.35
-8985.22
-8958.12
-8933.26
-8910.84
-8891.05
-8874.08
-8860.11
-8849.31
-8841.86
-8837.91
-8837.62
-8841.12
-8848.5
-8859.85
-8875.22
-8894.58
-8917.88
-8944.97
-8975.59
-9009.36
-9045.67
-9083.66
-9122.03
-9158.83
-9191.09
-9213.97
-9219.34
-9192.31
-9103.11
-8885.27
-8370.41
-7072.99
-7083.42
-8401.57
-8936.67
-9173.89
-9281.31
-9325.12
-9334.8
-9325
-9303.64
-9275.36
-9243.01
-9208.43
-9172.85
-9137.12
-9101.86
-9067.53
-9034.5
-9003.05
-8973.44
-8945.9
-8920.64
-8897.86
-8877.74
-8860.49
-8846.29
-8835.31
-8827.73
-8823.72
-8823.42
-8826.96
-8834.46
-8845.99
-8861.6
-8881.28
-8904.96
-8932.49
-8963.63
-8997.98
-9034.93
-9073.63
-9112.76
-9150.38
-9183.5
-9207.3
-9213.63
-9187.58
-9099.4
-8882.6
-8368.81
-7072.46
-7083.16
-8400.76
-8935.32
-9172.01
-9278.9
-9322.18
-9331.35
-9321.03
-9299.16
-9270.39
-9237.54
-9202.48
-9166.43
-9130.25
-9094.55
-9059.8
-9026.36
-8994.54
-8964.57
-8936.7
-8911.13
-8888.07
-8867.71
-8850.25
-8835.87
-8824.76
-8817.09
-8813.02
-8812.71
-8816.29
-8823.88
-8835.55
-8851.34
-8871.25
-8895.22
-8923.09
-8954.62
-8989.4
-9026.84
-9066.06
-9105.77
-9144.01
-9177.78
-9202.27
-9209.32
-9184.02
-9096.61
-8880.6
-8367.6
-7072.05
-7082.98
-8400.23
-8934.43
-9170.76
-9277.29
-9320.22
-9329.04
-9318.37
-9296.17
-9267.06
-9233.89
-9198.5
-9162.14
-9125.65
-9089.66
-9054.63
-9020.93
-8988.84
-8958.64
-8930.54
-8904.77
-8881.53
-8861.01
-8843.4
-8828.91
-8817.7
-8809.97
-8805.87
-8805.55
-8809.16
-8816.8
-8828.56
-8844.47
-8864.54
-8888.7
-8916.8
-8948.58
-8983.66
-9021.43
-9061
-9101.1
-9139.75
-9173.96
-9198.91
-9206.43
-9181.63
-9094.74
-8879.25
-8366.79
-7071.78
-7082.89
-8399.96
-8933.98
-9170.13
-9276.49
-9319.24
-9327.88
-9317.04
-9294.67
-9265.39
-9232.05
-9196.51
-9159.99
-9123.35
-9087.21
-9052.04
-9018.2
-8985.99
-8955.67
-8927.46
-8901.59
-8878.25
-8857.65
-8839.97
-8825.42
-8814.17
-8806.4
-8802.28
-8801.97
-8805.59
-8813.26
-8825.06
-8841.04
-8861.19
-8885.44
-8913.65
-8945.56
-8980.78
-9018.71
-9058.47
-9098.75
-9137.61
-9172.04
-9197.23
-9204.99
-9180.44
-9093.8
-8878.58
-8366.38
-7071.65
-7082.89
-8399.96
-8933.98
-9170.13
-9276.49
-9319.24
-9327.88
-9317.04
-9294.67
-9265.39
-9232.05
-9196.51
-9159.99
-9123.35
-9087.21
-9052.04
-9018.2
-8985.99
-8955.67
-8927.46
-8901.59
-8878.25
-8857.65
-8839.97
-8825.42
-8814.17
-8806.4
-8802.29
-8801.97
-8805.59
-8813.26
-8825.06
-8841.04
-8861.19
-8885.44
-8913.65
-8945.57
-8980.79
-9018.72
-9058.47
-9098.76
-9137.62
-9172.05
-9197.23
-9204.99
-9180.44
-9093.81
-8878.58
-8366.38
-7071.65
-7082.98
-8400.23
-8934.43
-9170.76
-9277.29
-9320.22
-9329.04
-9318.37
-9296.17
-9267.06
-9233.89
-9198.5
-9162.14
-9125.65
-9089.66
-9054.63
-9020.93
-8988.84
-8958.64
-8930.55
-8904.77
-8881.53
-8861.01
-8843.41
-8828.91
-8817.71
-8809.97
-8805.87
-8805.56
-8809.17
-8816.81
-8828.56
-8844.48
-8864.55
-8888.71
-8916.81
-8948.59
-8983.67
-9021.43
-9061.01
-9101.1
-9139.75
-9173.97
-9198.92
-9206.44
-9181.64
-9094.74
-8879.25
-8366.79
-7071.78
-7083.16
-8400.76
-8935.32
-9172.01
-9278.9
-9322.18
-9331.35
-9321.03
-9299.16
-9270.39
-9237.54
-9202.48
-9166.43
-9130.25
-9094.55
-9059.8
-9026.37
-8994.54
-8964.57
-8936.7
-8911.14
-8888.07
-8867.72
-8850.26
-8835.88
-8824.77
-8817.09
-8813.03
-8812.72
-8816.3
-8823.89
-8835.55
-8851.35
-8871.26
-8895.23
-8923.1
-8954.63
-8989.41
-9026.85
-9066.07
-9105.78
-9144.02
-9177.79
-9202.28
-9209.33
-9184.03
-9096.62
-8880.6
-8367.6
-7072.05
-7083.42
-8401.57
-8936.66
-9173.89
-9281.31
-9325.12
-9334.8
-9325
-9303.64
-9275.36
-9243.01
-9208.43
-9172.85
-9137.12
-9101.86
-9067.53
-9034.5
-9003.05
-8973.45
-8945.91
-8920.65
-8897.86
-8877.75
-8860.5
-8846.29
-8835.32
-8827.74
-8823.73
-8823.43
-8826.97
-8834.47
-8846
-8861.61
-8881.29
-8904.97
-8932.51
-8963.65
-8997.99
-9034.95
-9073.64
-9112.77
-9150.4
-9183.52
-9207.32
-9213.64
-9187.59
-9099.41
-8882.61
-8368.81
-7072.46
-7083.78
-8402.64
-8938.44
-9176.37
-9284.49
-9329
-9339.38
-9330.26
-9309.58
-9281.97
-9250.27
-9216.32
-9181.36
-9146.23
-9111.56
-9077.79
-9045.29
-9014.35
-8985.22
-8958.12
-8933.27
-8910.85
-8891.06
-8874.09
-8860.12
-8849.32
-8841.87
-8837.93
-8837.64
-8841.13
-8848.52
-8859.87
-8875.23
-8894.6
-8917.9
-8944.99
-8975.61
-9009.38
-9045.69
-9083.68
-9122.05
-9158.85
-9191.1
-9213.99
-9219.36
-9192.32
-9103.12
-8885.28
-8370.42
-7072.99
-7084.22
-8403.96
-8940.65
-9179.45
-9288.45
-9333.83
-9345.06
-9336.79
-9316.95
-9290.17
-9259.28
-9226.12
-9191.93
-9157.56
-9123.6
-9090.53
-9058.7
-9028.38
-8999.84
-8973.29
-8948.94
-8926.98
-8907.59
-8890.97
-8877.29
-8866.71
-8859.42
-8855.56
-8855.29
-8858.72
-8865.96
-8877.09
-8892.15
-8911.12
-8933.95
-8960.48
-8990.47
-9023.51
-9059.02
-9096.14
-9133.56
-9169.35
-9200.52
-9222.27
-9226.45
-9198.18
-9107.72
-8888.58
-8372.41
-7073.66
-7084.75
-8405.53
-8943.26
-9183.11
-9293.15
-9339.55
-9351.81
-9344.55
-9325.71
-9299.91
-9269.99
-9237.78
-9204.51
-9171.02
-9137.93
-9105.69
-9074.65
-9045.08
-9017.25
-8991.35
-8967.6
-8946.18
-8927.27
-8911.06
-8897.72
-8887.41
-8880.3
-8876.55
-8876.29
-8879.64
-8886.72
-8897.58
-8912.27
-8930.78
-8953.05
-8978.92
-9008.14
-9040.32
-9074.88
-9110.95
-9147.24
-9181.82
-9211.71
-9232.11
-9234.88
-9205.15
-9113.18
-8892.51
-8374.77
-7074.45
-7085.35
-8407.34
-8946.27
-9187.32
-9298.55
-9346.14
-9359.58
-9353.49
-9335.81
-9311.14
-9282.33
-9251.22
-9219.01
-9186.56
-9154.47
-9123.18
-9093.05
-9064.36
-9037.33
-9012.2
-8989.14
-8968.34
-8949.99
-8934.26
-8921.31
-8911.31
-8904.42
-8900.78
-8900.53
-8903.8
-8910.68
-8921.23
-8935.5
-8953.47
-8975.08
-9000.18
-9028.52
-9059.71
-9093.17
-9128.03
-9163.02
-9196.2
-9224.6
-9243.44
-9244.59
-9213.18
-9119.48
-8897.03
-8377.5
-7075.36
-7086.02
-8409.36
-8949.64
-9192.04
-9304.61
-9353.54
-9368.3
-9363.53
-9347.14
-9323.76
-9296.21
-9266.33
-9235.33
-9204.05
-9173.09
-9142.89
-9113.79
-9086.08
-9059.98
-9035.7
-9013.42
-8993.34
-8975.62
-8960.42
-8947.92
-8938.27
-8931.61
-8928.11
-8927.88
-8931.05
-8937.7
-8947.9
-8961.69
-8979.05
-8999.92
-9024.15
-9051.49
-9081.56
-9113.77
-9147.26
-9180.77
-9212.38
-9239.11
-9256.19
-9255.5
-9222.19
-9126.54
-8902.11
-8380.55
-7076.38
-7086.76
-8411.57
-8953.33
-9197.2
-9311.24
-9361.64
-9377.87
-9374.55
-9359.61
-9337.65
-9311.5
-9282.99
-9253.33
-9223.35
-9193.64
-9164.65
-9136.71
-9110.09
-9085.01
-9061.68
-9040.28
-9020.99
-9003.96
-8989.37
-8977.36
-8968.09
-8961.71
-8958.35
-8958.14
-8961.19
-8967.59
-8977.4
-8990.65
-9007.34
-9027.39
-9050.64
-9076.87
-9105.68
-9136.51
-9168.49
-9200.36
-9230.21
-9255.09
-9270.23
-9267.51
-9232.11
-9134.32
-8907.69
-8383.91
-7077.5
-7087.55
-8413.94
-8957.27
-9202.72
-9318.35
-9370.34
-9388.15
-9386.41
-9373.04
-9352.63
-9328.01
-9301
-9272.81
-9244.25
-9215.92
-9188.26
-9161.58
-9136.15
-9112.2
-9089.92
-9069.48
-9051.05
-9034.79
-9020.85
-9009.38
-9000.53
-8994.44
-8991.24
-8991.05
-8993.97
-9000.1
-9009.48
-9022.15
-9038.08
-9057.22
-9079.42
-9104.43
-9131.87
-9161.17
-9191.49
-9221.57
-9249.52
-9272.38
-9285.4
-9280.49
-9242.82
-9142.7
-8913.71
-8387.53
-7078.71
-7088.37
-8416.4
-8961.38
-9208.48
-9325.78
-9379.44
-9398.94
-9398.88
-9387.19
-9368.45
-9345.48
-9320.09
-9293.48
-9266.47
-9239.64
-9213.4
-9188.1
-9163.97
-9141.24
-9120.09
-9100.69
-9083.2
-9067.76
-9054.53
-9043.66
-9035.26
-9029.49
-9026.46
-9026.29
-9029.07
-9034.89
-9043.8
-9055.83
-9070.96
-9089.12
-9110.16
-9133.84
-9159.8
-9187.46
-9215.99
-9244.14
-9270.03
-9290.72
-9301.48
-9294.22
-9254.13
-9151.55
-8920.05
-8391.35
-7079.98
-7089.19
-8418.86
-8965.5
-9214.29
-9333.29
-9388.68
-9409.93
-9411.64
-9401.72
-9384.75
-9363.54
-9339.88
-9314.97
-9289.61
-9264.37
-9239.68
-9215.85
-9193.12
-9171.69
-9151.76
-9133.47
-9116.99
-9102.44
-9089.98
-9079.73
-9071.83
-9066.39
-9063.54
-9063.39
-9066.02
-9071.52
-9079.92
-9091.26
-9105.52
-9122.62
-9142.42
-9164.69
-9189.05
-9214.96
-9241.57
-9267.67
-9291.37
-9309.77
-9318.14
-9308.41
-9265.81
-9160.66
-8926.58
-8395.27
-7081.29
-7089.96
-8421.2
-8969.43
-9219.85
-9340.54
-9397.66
-9420.7
-9424.22
-9416.14
-9401.01
-9381.64
-9359.81
-9336.69
-9313.09
-9289.56
-9266.5
-9244.23
-9222.99
-9202.96
-9184.32
-9167.23
-9151.81
-9138.21
-9126.56
-9116.98
-9109.59
-9104.52
-9101.86
-9101.73
-9104.2
-9109.34
-9117.21
-9127.82
-9141.14
-9157.12
-9175.6
-9196.36
-9219.04
-9243.08
-9267.68
-9291.61
-9313.02
-9329.03
-9334.92
-9322.66
-9277.48
-9169.74
-8933.06
-8399.15
-7082.58
-7090.62
-8423.2
-8972.83
-9224.73
-9346.99
-9405.78
-9430.56
-9435.91
-9429.69
-9416.47
-9399.01
-9379.09
-9357.85
-9336.09
-9314.35
-9293.03
-9272.41
-9252.74
-9234.18
-9216.91
-9201.07
-9186.79
-9174.19
-9163.39
-9154.52
-9147.68
-9142.98
-9140.53
-9140.41
-9142.7
-9147.48
-9154.77
-9164.6
-9176.95
-9191.74
-9208.83
-9228
-9248.9
-9270.99
-9293.48
-9315.16
-9334.21
-9347.76
-9351.13
-9336.33
-9288.6
-9178.33
-8939.15
-8402.79
-7083.79
-7091.06
-8424.55
-8975.19
-9228.24
-9351.82
-9412.11
-9438.53
-9445.64
-9441.28
-9429.98
-9414.48
-9396.52
-9377.24
-9357.4
-9337.54
-9318.02
-9299.14
-9281.11
-9264.1
-9248.27
-9233.75
-9220.65
-9209.1
-9199.2
-9191.07
-9184.8
-9180.5
-9178.26
-9178.15
-9180.26
-9184.65
-9191.34
-9200.35
-9211.67
-9225.21
-9240.85
-9258.36
-9277.41
-9297.47
-9317.78
-9337.15
-9353.79
-9364.86
-9365.74
-9348.46
-9298.32
-9185.73
-8944.33
-8405.84
-7084.8
-7091.08
-8424.68
-8975.63
-9229.26
-9353.71
-9415.16
-9443
-9451.74
-9449.18
-9439.78
-9426.26
-9410.31
-9393.04
-9375.19
-9357.27
-9339.64
-9322.56
-9306.24
-9290.85
-9276.52
-9263.37
-9251.51
-9241.05
-9232.09
-9224.73
-9219.06
-9215.17
-9213.14
-9213.05
-9214.97
-9218.94
-9225
-9233.17
-9243.4
-9255.65
-9269.77
-9285.56
-9302.7
-9320.68
-9338.75
-9355.78
-9370
-9378.65
-9377.14
-9357.56
-9305.29
-9190.78
-8947.7
-8407.76
-7085.41
-7090.36
-8422.67
-8972.68
-9225.89
-9350.45
-9412.52
-9441.42
-9451.56
-9450.66
-9443.11
-9431.55
-9417.62
-9402.4
-9386.59
-9370.67
-9354.99
-9339.78
-9325.24
-9311.52
-9298.74
-9287.02
-9276.44
-9267.12
-9259.13
-9252.57
-9247.51
-9244.05
-9242.24
-9242.17
-9243.88
-9247.43
-9252.84
-9260.11
-9269.23
-9280.13
-9292.69
-9306.72
-9321.89
-9337.74
-9353.56
-9368.24
-9380.1
-9386.42
-9382.73
-9361.2
-9307.31
-9191.6
-8947.79
-8407.58
-7085.31
-7088.3
-8416.77
-8963.71
-9214.81
-9338.27
-9400.11
-9429.5
-9440.68
-9441.22
-9435.4
-9425.75
-9413.84
-9400.69
-9386.96
-9373.1
-9359.41
-9346.13
-9333.42
-9321.42
-9310.25
-9299.99
-9290.74
-9282.59
-9275.6
-9269.87
-9265.45
-9262.42
-9260.84
-9260.78
-9262.28
-9265.39
-9270.12
-9276.48
-9284.45
-9293.97
-9304.93
-9317.13
-9330.31
-9344.01
-9357.57
-9369.95
-9379.54
-9383.73
-9378.18
-9355.24
-9300.55
-9184.84
-8941.96
-8403.59
-7083.89
-7083.69
-8403.63
-8943.69
-9189.88
-9310.27
-9370.59
-9399.63
-9411.35
-9413.03
-9408.76
-9400.94
-9391.03
-9379.95
-9368.33
-9356.55
-9344.9
-9333.59
-9322.76
-9312.53
-9303
-9294.26
-9286.38
-9279.42
-9273.47
-9268.57
-9264.81
-9262.23
-9260.88
-9260.83
-9262.12
-9264.77
-9268.8
-9274.23
-9281.02
-9289.12
-9298.44
-9308.8
-9319.96
-9331.5
-9342.82
-9352.97
-9360.45
-9362.8
-9355.9
-9332.34
-9278.12
-9164.33
-8925.14
-8392.4
-7079.93
-7073.89
-8376.08
-8902.29
-9138.81
-9253.1
-9309.99
-9337.55
-9349.11
-9351.53
-9348.6
-9342.49
-9334.52
-9325.51
-9316
-9306.34
-9296.77
-9287.47
-9278.56
-9270.14
-9262.29
-9255.09
-9248.6
-9242.87
-9237.97
-9233.94
-9230.84
-9228.71
-9227.61
-9227.57
-9228.63
-9230.81
-9234.14
-9238.6
-9244.19
-9250.85
-9258.5
-9267
-9276.12
-9285.52
-9294.65
-9302.68
-9308.25
-9309.15
-9301.55
-9278.51
-9226.63
-9117.78
-8887.02
-8366.82
-7070.79
-7052.3
-8317.22
-8816.38
-9035.19
-9138.67
-9189.48
-9214.04
-9224.6
-9227.29
-9225.43
-9220.9
-9214.8
-9207.84
-9200.45
-9192.92
-9185.46
-9178.19
-9171.23
-9164.65
-9158.51
-9152.88
-9147.81
-9143.33
-9139.5
-9136.35
-9133.92
-9132.26
-9131.4
-9131.37
-9132.2
-9133.91
-9136.51
-9140
-9144.36
-9149.56
-9155.53
-9162.15
-9169.24
-9176.5
-9183.5
-9189.54
-9193.46
-9193.36
-9185.9
-9164.87
-9117.98
-9018.75
-8804.45
-8309.99
-7049.88
-6999.81
-8182.5
-8628.79
-8816.32
-8902.11
-8943.31
-8963.05
-8971.63
-8974.08
-8973.01
-8969.91
-8965.62
-8960.68
-8955.41
-8950.02
-8944.68
-8939.47
-8934.48
-8929.76
-8925.37
-8921.33
-8917.69
-8914.48
-8911.73
-8909.48
-8907.74
-8906.55
-8905.93
-8905.91
-8906.5
-8907.73
-8909.59
-8912.09
-8915.22
-8918.95
-8923.22
-8927.95
-8933
-8938.17
-8943.1
-8947.28
-8949.82
-8949.24
-8942.87
-8925.67
-8887.28
-8804.54
-8620.23
-8177.32
-6998.07
-6850.49
-7839.63
-8182.49
-8317.16
-8375.94
-8403.37
-8416.33
-8421.99
-8423.7
-8423.18
-8421.38
-8418.84
-8415.88
-8412.72
-8409.49
-8406.28
-8403.15
-8400.15
-8397.32
-8394.67
-8392.24
-8390.06
-8388.13
-8386.47
-8385.11
-8384.07
-8383.36
-8382.98
-8382.97
-8383.33
-8384.07
-8385.19
-8386.69
-8388.57
-8390.81
-8393.38
-8396.22
-8399.24
-8402.33
-8405.26
-8407.71
-8409.11
-8408.52
-8404.2
-8392.76
-8367.02
-8310.07
-8177.34
-7836.51
-6849.45
-6333.94
-6850.49
-6999.8
-7052.28
-7073.84
-7083.6
-7088.15
-7090.13
-7090.74
-7090.59
-7090
-7089.16
-7088.18
-7087.13
-7086.05
-7084.98
-7083.94
-7082.94
-7081.99
-7081.11
-7080.3
-7079.57
-7078.92
-7078.37
-7077.92
-7077.57
-7077.33
-7077.21
-7077.21
-7077.33
-7077.57
-7077.95
-7078.45
-7079.08
-7079.82
-7080.68
-7081.62
-7082.63
-7083.66
-7084.63
-7085.43
-7085.88
-7085.64
-7084.1
-7080.06
-7070.86
-7049.91
-6998.08
-6849.45
-6333.59
-1401.83
-2230.07
-2523.72
-2646.2
-2704.25
-2734.42
-2751.07
-2760.59
-2766.07
-2769.17
-2770.8
-2771.51
-2771.64
-2771.39
-2770.91
-2770.3
-2769.6
-2768.88
-2768.15
-2767.45
-2766.78
-2766.17
-2765.62
-2765.15
-2764.75
-2764.44
-2764.22
-2764.1
-2764.07
-2764.13
-2764.3
-2764.55
-2764.88
-2765.27
-2765.7
-2766.12
-2766.48
-2766.69
-2766.6
-2766.01
-2764.57
-2761.73
-2756.58
-2747.46
-2731.26
-2701.59
-2644.08
-2522.18
-2229.14
-1401.52
-2230.07
-3939.7
-4651.17
-4975.9
-5137.36
-5223.4
-5271.55
-5299.27
-5315.31
-5324.39
-5329.16
-5331.22
-5331.56
-5330.8
-5329.36
-5327.49
-5325.41
-5323.23
-5321.05
-5318.93
-5316.94
-5315.1
-5313.45
-5312.03
-5310.84
-5309.9
-5309.24
-5308.86
-5308.77
-5308.97
-5309.46
-5310.21
-5311.2
-5312.38
-5313.68
-5314.96
-5316.05
-5316.7
-5316.47
-5314.76
-5310.56
-5302.28
-5287.23
-5260.7
-5213.9
-5129.38
-4969.55
-4646.56
-3936.9
-2229.13
-2523.72
-4651.19
-5610.4
-6075.3
-6316.28
-6448.27
-6523.46
-6567.23
-6592.73
-6607.18
-6614.76
-6617.98
-6618.42
-6617.09
-6614.63
-6611.51
-6608.02
-6604.39
-6600.75
-6597.23
-6593.91
-6590.85
-6588.11
-6585.74
-6583.76
-6582.2
-6581.1
-6580.47
-6580.32
-6580.66
-6581.47
-6582.72
-6584.38
-6586.35
-6588.51
-6590.68
-6592.54
-6593.68
-6593.44
-6590.79
-6584.17
-6571.04
-6547.2
-6505.41
-6432.48
-6303
-6064.74
-5602.72
-4646.53
-2522.16
-2646.22
-4975.96
-6075.35
-6630.38
-6927.69
-7094.58
-7191.32
-7248.29
-7281.7
-7300.66
-7310.56
-7314.66
-7315.04
-7313.03
-7309.52
-7305.1
-7300.2
-7295.11
-7290.02
-7285.1
-7280.46
-7276.19
-7272.37
-7269.05
-7266.29
-7264.12
-7262.59
-7261.71
-7261.5
-7261.97
-7263.1
-7264.86
-7267.18
-7269.96
-7273.01
-7276.08
-7278.78
-7280.51
-7280.41
-7277.11
-7268.55
-7251.43
-7220.34
-7166.14
-7072.55
-6909.16
-6615.65
-6064.65
-4969.46
-2644.04
-2704.3
-5137.49
-6316.44
-6927.82
-7263.26
-7455.28
-7568.24
-7635.45
-7675.08
-7697.59
-7709.22
-7713.86
-7713.98
-7711.18
-7706.54
-7700.81
-7694.49
-7687.93
-7681.4
-7675.09
-7669.15
-7663.68
-7658.79
-7654.54
-7651
-7648.23
-7646.27
-7645.14
-7644.88
-7645.48
-7646.94
-7649.21
-7652.2
-7655.78
-7659.74
-7663.76
-7667.35
-7669.8
-7670.03
-7666.43
-7656.5
-7636.35
-7599.69
-7536.02
-7427.09
-7239.55
-6908.97
-6302.75
-5129.18
-2701.51
-2734.5
-5223.63
-6448.61
-7094.93
-7455.53
-7664.96
-7789.6
-7864.33
-7908.57
-7933.64
-7946.43
-7951.25
-7950.88
-7947.17
-7941.35
-7934.26
-7926.51
-7918.49
-7910.53
-7902.85
-7895.62
-7888.97
-7883.03
-7877.86
-7873.57
-7870.2
-7867.81
-7866.45
-7866.13
-7866.87
-7868.65
-7871.42
-7875.09
-7879.48
-7884.37
-7889.37
-7893.93
-7897.21
-7898
-7894.44
-7883.73
-7861.52
-7820.89
-7750.45
-7630.73
-7426.73
-7072.04
-6431.98
-5213.54
-2731.12
-2751.21
-5271.94
-6524.05
-7192.01
-7568.89
-7790.02
-7922.7
-8002.68
-8050.09
-8076.83
-8090.21
-8094.87
-8093.83
-8089.08
-8082.01
-8073.55
-8064.35
-8054.89
-8045.52
-8036.48
-8027.98
-8020.18
-8013.2
-8007.14
-8002.1
-7998.14
-7995.34
-7993.75
-7993.38
-7994.26
-7996.36
-7999.63
-8003.97
-8009.19
-8015.02
-8021.04
-8026.63
-8030.87
-8032.41
-8029.23
-8018.28
-7994.9
-7951.72
-7876.78
-7749.87
-7535.12
-7165.16
-6504.55
-5260.11
-2747.24
-2760.8
-5299.87
-6568.17
-7249.44
-7636.65
-7865.38
-8003.34
-8086.74
-8136.14
-8163.78
-8177.27
-8181.46
-8179.55
-8173.68
-8165.3
-8155.44
-8144.8
-8133.91
-8123.14
-8112.78
-8103.04
-8094.11
-8086.11
-8079.18
-8073.41
-8068.89
-8065.69
-8063.87
-8063.46
-8064.47
-8066.89
-8070.66
-8075.66
-8081.71
-8088.49
-8095.56
-8102.24
-8107.54
-8110.02
-8107.52
-8096.82
-8073.02
-8028.46
-7950.82
-7819.45
-7598.02
-7218.73
-6545.86
-5286.34
-2756.26
-2766.37
-5316.19
-6594.11
-7283.45
-7677.02
-7910.47
-8051.68
-8137.1
-8187.54
-8215.47
-8228.66
-8232.13
-8229.2
-8222.11
-8212.39
-8201.11
-8189.05
-8176.75
-8164.62
-8152.96
-8142.01
-8131.98
-8123
-8115.22
-8108.75
-8103.67
-8100.08
-8098.04
-8097.59
-8098.73
-8101.47
-8105.73
-8111.4
-8118.26
-8126
-8134.14
-8141.95
-8148.41
-8151.97
-8150.39
-8140.33
-8116.73
-8071.72
-7992.75
-7858.93
-7633.68
-7249
-6569.08
-5301.01
-2761.29
-2769.58
-5325.6
-6609.11
-7303.17
-7700.46
-7936.63
-8079.63
-8166.04
-8216.8
-8244.52
-8257.09
-8259.65
-8255.58
-8247.21
-8236.13
-8223.45
-8209.98
-8196.29
-8182.83
-8169.91
-8157.8
-8146.7
-8136.77
-8128.17
-8121.02
-8115.41
-8111.45
-8109.19
-8108.69
-8109.98
-8113.02
-8117.76
-8124.08
-8131.75
-8140.45
-8149.66
-8158.64
-8166.31
-8171.07
-8170.61
-8161.5
-8138.55
-8093.79
-8014.52
-7879.69
-7652.58
-7265.1
-6581.46
-5308.83
-2763.96
-2771.35
-5330.78
-6617.36
-7313.98
-7713.24
-7950.76
-8094.52
-8181.17
-8231.73
-8258.87
-8270.59
-8272.08
-8266.8
-8257.12
-8244.66
-8230.6
-8215.75
-8200.72
-8185.97
-8171.84
-8158.6
-8146.47
-8135.63
-8126.24
-8118.43
-8112.32
-8107.99
-8105.54
-8105
-8106.41
-8109.76
-8114.97
-8121.92
-8130.39
-8140.03
-8150.31
-8160.46
-8169.38
-8175.42
-8176.22
-8168.28
-8146.34
-8102.33
-8023.47
-7888.62
-7661
-7272.45
-6587.19
-5312.48
-2765.22
-2772.22
-5333.33
-6621.38
-7319.17
-7719.24
-7957.18
-8101
-8187.36
-8237.34
-8263.66
-8274.36
-8274.69
-8268.15
-8257.14
-8243.34
-8227.92
-8211.73
-8195.41
-8179.42
-8164.13
-8149.81
-8136.7
-8124.99
-8114.84
-8106.41
-8099.81
-8095.14
-8092.49
-8091.92
-8093.45
-8097.09
-8102.75
-8110.32
-8119.56
-8130.11
-8141.45
-8152.78
-8162.95
-8170.32
-8172.46
-8165.84
-8145.14
-8102.24
-8024.28
-7890.09
-7662.82
-7274.32
-6588.8
-5313.57
-2765.6
-2772.53
-5334.22
-6622.72
-7320.79
-7720.92
-7958.68
-8102.08
-8187.82
-8236.96
-8262.29
-8271.88
-8271
-8263.19
-8250.87
-8235.74
-8219.01
-8201.54
-8183.98
-8166.81
-8150.41
-8135.06
-8121.02
-8108.48
-8097.63
-8088.6
-8081.53
-8076.54
-8073.71
-8073.1
-8074.76
-8078.67
-8084.77
-8092.92
-8102.91
-8114.35
-8126.71
-8139.19
-8150.62
-8159.31
-8162.84
-8157.61
-8138.3
-8096.72
-8020
-7886.89
-7660.56
-7272.8
-6587.87
-5313.07
-2765.45
-2772.49
-5334.08
-6622.41
-7320.2
-7719.91
-7957.11
-8099.79
-8184.67
-8232.83
-8257.09
-8265.51
-8263.41
-8254.34
-8240.74
-8224.34
-8206.36
-8187.67
-8168.93
-8150.65
-8133.2
-8116.88
-8101.96
-8088.65
-8077.12
-8067.53
-8060.03
-8054.73
-8051.72
-8051.09
-8052.86
-8057.03
-8063.54
-8072.26
-8082.95
-8095.25
-8108.59
-8122.18
-8134.82
-8144.83
-8149.74
-8145.95
-8128.09
-8087.96
-8012.64
-7880.89
-7655.82
-7269.25
-6585.41
-5311.63
-2764.97
-2772.25
-5333.32
-6621.1
-7318.27
-7717.27
-7953.68
-8095.47
-8179.37
-8226.49
-8249.62
-8256.88
-8253.57
-8243.28
-8228.47
-8210.86
-8191.69
-8171.85
-8152.01
-8132.68
-8114.25
-8097.03
-8081.29
-8067.25
-8055.09
-8044.98
-8037.07
-8031.49
-8028.32
-8027.66
-8029.54
-8033.95
-8040.85
-8050.1
-8061.45
-8074.55
-8088.83
-8103.48
-8117.29
-8128.57
-8134.84
-8132.46
-8116.06
-8077.42
-8003.6
-7873.33
-7649.72
-7264.56
-6582.09
-5309.66
-2764.32
-2771.88
-5332.22
-6619.23
-7315.59
-7713.74
-7949.23
-8090.06
-8172.93
-8218.97
-8241
-8247.12
-8242.66
-8231.22
-8215.25
-8196.51
-8176.22
-8155.32
-8134.45
-8114.15
-8094.81
-8076.76
-8060.26
-8045.55
-8032.81
-8022.22
-8013.93
-8008.08
-8004.77
-8004.08
-8006.06
-8010.7
-8017.96
-8027.69