/*--------------------------------*- C++ -*----------------------------------*\
| =========                 |                                                 |
| \\      /  F ield         | OpenFOAM: The Open Source CFD Toolbox           |
|  \\    /   O peration     | Version:  5.x                                   |
|   \\  /    A nd           | Web:      www.OpenFOAM.org                      |
|    \\/     M anipulation  |                                                 |
\*---------------------------------------------------------------------------*/
FoamFile
{
    version     2.0;
    format      ascii;
    class       volScalarField;
    location    "1.3";
    object      T;
}
// * * * * * * * * * * * * * * * * * * * * * * * * * * * * * * * * * * * * * //

dimensions      [0 0 0 1 0 0 0];

internalField   nonuniform List<scalar> 
25000
(
300.738
301.385
301.771
302.049
302.272
302.461
302.628
302.777
302.915
303.042
303.16
303.272
303.376
303.475
303.567
303.655
303.736
303.813
303.883
303.948
304.007
304.06
304.106
304.145
304.178
304.202
304.219
304.227
304.226
304.216
304.197
304.168
304.128
304.078
304.017
303.945
303.862
303.767
303.659
303.539
303.405
303.257
303.093
302.912
302.71
302.481
302.216
301.892
301.458
300.762
301.385
302.971
304.038
304.843
305.499
306.06
306.555
307.003
307.413
307.793
308.148
308.48
308.793
309.088
309.366
309.627
309.872
310.1
310.312
310.507
310.683
310.841
310.98
311.098
311.194
311.267
311.317
311.341
311.339
311.31
311.252
311.165
311.047
310.897
310.715
310.499
310.249
309.963
309.641
309.281
308.881
308.438
307.95
307.408
306.806
306.126
305.341
304.399
303.191
301.458
301.771
304.037
305.668
306.947
308.008
308.926
309.741
310.479
311.157
311.787
312.375
312.927
313.446
313.935
314.397
314.83
315.237
315.617
315.969
316.292
316.585
316.848
317.078
317.274
317.434
317.556
317.638
317.679
317.676
317.627
317.531
317.386
317.19
316.941
316.639
316.28
315.865
315.391
314.856
314.259
313.595
312.862
312.053
311.159
310.166
309.051
307.775
306.27
304.401
301.893
302.048
304.839
306.942
308.639
310.074
311.327
312.448
313.467
314.406
315.279
316.096
316.863
317.586
318.267
318.909
319.514
320.08
320.609
321.1
321.55
321.96
322.326
322.647
322.92
323.143
323.313
323.428
323.485
323.48
323.413
323.279
323.077
322.804
322.457
322.036
321.537
320.959
320.299
319.555
318.724
317.802
316.784
315.663
314.426
313.057
311.528
309.795
307.781
305.347
302.218
302.268
305.489
307.995
310.064
311.839
313.405
314.815
316.104
317.295
318.404
319.444
320.421
321.343
322.212
323.032
323.804
324.527
325.203
325.83
326.406
326.929
327.397
327.808
328.157
328.443
328.66
328.807
328.88
328.875
328.789
328.618
328.36
328.011
327.569
327.031
326.394
325.656
324.814
323.865
322.806
321.632
320.338
318.913
317.346
315.618
313.699
311.542
309.069
306.14
302.487
302.455
306.041
308.899
311.299
313.385
315.243
316.926
318.471
319.903
321.24
322.495
323.676
324.791
325.844
326.837
327.773
328.65
329.47
330.23
330.929
331.564
332.133
332.631
333.055
333.401
333.666
333.845
333.933
333.927
333.823
333.616
333.303
332.881
332.345
331.693
330.921
330.027
329.008
327.86
326.579
325.161
323.599
321.883
320.001
317.932
315.646
313.095
310.203
306.832
302.719
302.617
306.524
309.694
312.394
314.765
316.892
318.831
320.619
322.281
323.836
325.298
326.677
327.979
329.209
330.371
331.466
332.493
333.453
334.344
335.162
335.907
336.573
337.157
337.654
338.06
338.371
338.581
338.685
338.678
338.556
338.315
337.949
337.454
336.827
336.065
335.162
334.117
332.926
331.585
330.09
328.436
326.616
324.622
322.438
320.046
317.416
314.501
311.223
307.452
302.927
302.761
306.955
310.405
313.377
316.01
318.388
320.567
322.583
324.463
326.226
327.886
329.454
330.937
332.339
333.664
334.912
336.085
337.181
338.197
339.133
339.983
340.744
341.411
341.98
342.445
342.8
343.04
343.159
343.153
343.014
342.739
342.321
341.757
341.043
340.173
339.144
337.953
336.595
335.069
333.368
331.488
329.422
327.161
324.692
321.996
319.043
315.787
312.155
308.016
303.116
302.891
307.344
311.049
314.269
317.142
319.753
322.156
324.387
326.473
328.434
330.283
332.032
333.687
335.254
336.735
338.132
339.445
340.671
341.81
342.858
343.811
344.664
345.412
346.05
346.571
346.97
347.239
347.374
347.367
347.212
346.904
346.438
345.807
345.008
344.035
342.884
341.553
340.037
338.331
336.433
334.338
332.038
329.524
326.785
323.802
320.546
316.973
313.011
308.534
303.29
303.009
307.697
311.634
315.082
318.178
321.005
323.616
326.048
328.328
330.476
332.505
334.426
336.246
337.97
339.6
341.139
342.586
343.939
345.195
346.351
347.402
348.344
349.17
349.874
350.449
350.89
351.188
351.337
351.33
351.161
350.822
350.308
349.614
348.733
347.662
346.396
344.93
343.262
341.387
339.301
337
334.478
331.726
328.732
325.478
321.939
318.07
313.803
309.012
303.45
303.117
308.02
312.17
315.827
319.128
322.154
324.959
327.58
330.042
332.365
334.563
336.647
338.623
340.496
342.269
343.944
345.518
346.991
348.359
349.619
350.764
351.791
352.691
353.459
354.087
354.567
354.893
355.056
355.05
354.866
354.498
353.939
353.184
352.227
351.062
349.685
348.092
346.279
344.243
341.98
339.485
336.753
333.776
330.542
327.036
323.232
319.088
314.536
309.455
303.598
303.215
308.315
312.659
316.509
319.999
323.21
326.195
328.991
331.623
334.11
336.467
338.704
340.827
342.841
344.749
346.552
348.247
349.834
351.309
352.667
353.902
355.009
355.98
356.809
357.486
358.005
358.357
358.534
358.528
358.331
357.936
357.335
356.522
355.492
354.238
352.757
351.044
349.095
346.907
344.477
341.799
338.87
335.681
332.224
328.482
324.43
320.03
315.215
309.864
303.735
303.305
308.584
313.107
317.133
320.797
324.178
327.33
330.288
333.078
335.718
338.224
340.603
342.864
345.011
347.045
348.968
350.778
352.472
354.047
355.498
356.818
358.001
359.039
359.925
360.65
361.206
361.583
361.773
361.767
361.558
361.136
360.496
359.629
358.531
357.194
355.615
353.789
351.712
349.382
346.795
343.946
340.833
337.448
333.782
329.82
325.539
320.902
315.843
310.243
303.861
303.387
308.83
313.516
317.703
321.526
325.063
328.368
331.476
334.411
337.194
339.837
342.349
344.738
347.008
349.161
351.196
353.113
354.908
356.577
358.114
359.514
360.768
361.87
362.81
363.579
364.169
364.569
364.772
364.767
364.546
364.101
363.423
362.507
361.344
359.93
358.259
356.328
354.133
351.67
348.936
345.93
342.645
339.077
335.218
331.053
326.561
321.704
316.42
310.591
303.978
303.462
309.053
313.888
318.221
322.188
325.869
329.314
332.558
335.628
338.54
341.31
343.945
346.453
348.837
351.099
353.239
355.254
357.142
358.899
360.517
361.99
363.311
364.471
365.461
366.272
366.894
367.317
367.531
367.527
367.296
366.828
366.117
365.153
363.932
362.446
360.691
358.662
356.357
353.771
350.903
347.75
344.308
340.572
336.535
332.183
327.497
322.439
316.949
310.91
304.084
303.529
309.255
314.223
318.689
322.787
326.597
330.169
333.538
336.729
339.761
342.646
345.393
348.009
350.498
352.86
355.096
357.202
359.176
361.013
362.705
364.247
365.629
366.843
367.88
368.728
369.38
369.823
370.048
370.045
369.804
369.317
368.574
367.568
366.292
364.741
362.908
360.791
358.384
355.687
352.696
349.409
345.822
341.933
337.734
333.212
328.348
323.108
317.43
311.2
304.181
303.589
309.436
314.523
319.108
323.324
327.249
330.935
334.417
337.718
340.857
343.846
346.695
349.409
351.992
354.446
356.768
358.957
361.009
362.919
364.679
366.283
367.721
368.984
370.063
370.947
371.625
372.087
372.322
372.32
372.071
371.565
370.794
369.75
368.425
366.814
364.911
362.712
360.215
357.416
354.313
350.905
347.188
343.16
338.814
334.139
329.115
323.71
317.863
311.461
304.268
303.643
309.595
314.789
319.479
323.799
327.828
331.615
335.196
338.595
341.829
344.912
347.851
350.653
353.321
355.856
358.256
360.52
362.642
364.617
366.438
368.097
369.585
370.893
372.009
372.925
373.627
374.106
374.35
374.349
374.093
373.571
372.774
371.695
370.327
368.662
366.697
364.426
361.847
358.957
355.755
352.238
348.405
344.254
339.777
334.964
329.798
324.246
318.249
311.693
304.346
303.689
309.735
315.02
319.803
324.214
328.332
332.209
335.877
339.361
342.68
345.844
348.863
351.742
354.484
357.091
359.56
361.888
364.072
366.105
367.98
369.688
371.22
372.567
373.718
374.661
375.385
375.879
376.131
376.131
375.868
375.332
374.513
373.404
371.997
370.285
368.264
365.93
363.279
360.309
357.019
353.408
349.473
345.212
340.621
335.688
330.397
324.716
318.587
311.897
304.414
303.729
309.854
315.219
320.079
324.569
328.764
332.717
336.46
340.018
343.408
346.643
349.73
352.676
355.482
358.15
360.678
363.063
365.3
367.383
369.304
371.055
372.626
374.006
375.186
376.153
376.896
377.403
377.662
377.663
377.394
376.846
376.008
374.873
373.432
371.68
369.612
367.223
364.51
361.472
358.106
354.413
350.39
346.036
341.346
336.31
330.912
325.12
318.877
312.072
304.472
303.762
309.953
315.384
320.31
324.864
329.124
333.139
336.945
340.564
344.015
347.308
350.453
353.454
356.314
359.034
361.612
364.044
366.325
368.45
370.41
372.196
373.799
375.208
376.412
377.399
378.158
378.676
378.941
378.943
378.67
378.111
377.257
376.1
374.632
372.846
370.738
368.303
365.538
362.442
359.014
355.252
351.156
346.724
341.951
336.829
331.341
325.457
319.119
312.218
304.521
303.788
310.032
315.516
320.494
325.1
329.411
333.478
337.333
341.002
344.5
347.841
351.031
354.077
356.98
359.742
362.359
364.829
367.147
369.305
371.296
373.111
374.74
376.172
377.395
378.399
379.17
379.697
379.967
379.969
379.692
379.125
378.259
377.084
375.594
373.781
371.641
369.169
366.363
363.221
359.742
355.925
351.77
347.275
342.436
337.245
331.685
325.727
319.313
312.335
304.56
303.808
310.091
315.614
320.632
325.277
329.627
333.731
337.624
341.33
344.864
348.24
351.465
354.544
357.48
360.273
362.92
365.419
367.763
369.947
371.961
373.798
375.446
376.895
378.134
379.15
379.93
380.464
380.738
380.741
380.461
379.888
379.012
377.824
376.316
374.483
372.319
369.82
366.982
363.806
360.288
356.43
352.231
347.689
342.8
337.557
331.943
325.929
319.459
312.423
304.59
303.821
310.131
315.68
320.724
325.395
329.77
333.9
337.818
341.548
345.107
348.506
351.754
354.856
357.813
360.627
363.294
365.812
368.174
370.375
372.405
374.256
375.918
377.378
378.627
379.651
380.438
380.976
381.252
381.255
380.974
380.397
379.514
378.317
376.799
374.952
372.772
370.254
367.396
364.196
360.653
356.768
352.539
347.965
343.043
337.766
332.116
326.065
319.556
312.482
304.609
303.828
310.151
315.713
320.77
325.454
329.842
333.985
337.915
341.658
345.228
348.639
351.899
355.012
357.98
360.804
363.481
366.009
368.38
370.589
372.628
374.486
376.154
377.62
378.873
379.902
380.692
381.232
381.51
381.513
381.23
380.651
379.765
378.564
377.04
375.187
372.998
370.471
367.603
364.391
360.836
356.936
352.693
348.103
343.165
337.87
332.202
326.132
319.605
312.511
304.619
303.828
310.151
315.713
320.77
325.454
329.842
333.985
337.915
341.658
345.228
348.64
351.899
355.012
357.98
360.804
363.481
366.009
368.38
370.589
372.628
374.486
376.154
377.62
378.874
379.902
380.692
381.232
381.51
381.513
381.23
380.651
379.766
378.564
377.04
375.187
372.998
370.471
367.603
364.391
360.836
356.936
352.693
348.103
343.165
337.87
332.202
326.132
319.605
312.511
304.619
303.821
310.131
315.68
320.724
325.395
329.77
333.9
337.818
341.548
345.107
348.506
351.754
354.856
357.813
360.627
363.294
365.812
368.175
370.375
372.405
374.256
375.918
377.379
378.627
379.651
380.438
380.976
381.252
381.255
380.974
380.397
379.514
378.317
376.799
374.952
372.772
370.254
367.396
364.196
360.653
356.768
352.539
347.965
343.043
337.765
332.116
326.065
319.556
312.482
304.609
303.808
310.091
315.614
320.632
325.277
329.627
333.731
337.624
341.33
344.864
348.24
351.465
354.544
357.48
360.273
362.92
365.419
367.763
369.947
371.961
373.798
375.446
376.896
378.134
379.15
379.93
380.464
380.738
380.741
380.461
379.888
379.012
377.824
376.317
374.483
372.319
369.82
366.982
363.806
360.288
356.43
352.231
347.689
342.8
337.557
331.943
325.929
319.459
312.423
304.59
303.788
310.032
315.516
320.494
325.1
329.411
333.478
337.333
341.002
344.5
347.841
351.031
354.077
356.98
359.742
362.359
364.829
367.147
369.305
371.296
373.111
374.74
376.172
377.396
378.399
379.17
379.697
379.967
379.97
379.692
379.126
378.259
377.084
375.594
373.781
371.641
369.169
366.363
363.221
359.742
355.925
351.77
347.275
342.436
337.245
331.685
325.727
319.313
312.335
304.56
303.762
309.953
315.384
320.31
324.864
329.124
333.14
336.945
340.565
344.015
347.308
350.453
353.454
356.314
359.034
361.612
364.044
366.326
368.45
370.41
372.196
373.799
375.209
376.412
377.4
378.158
378.676
378.942
378.943
378.67
378.111
377.257
376.1
374.632
372.846
370.738
368.303
365.538
362.442
359.014
355.252
351.156
346.724
341.951
336.829
331.341
325.457
319.119
312.218
304.521
303.729
309.854
315.219
320.079
324.569
328.764
332.717
336.46
340.018
343.408
346.643
349.73
352.676
355.482
358.151
360.679
363.064
365.301
367.383
369.304
371.055
372.626
374.007
375.186
376.153
376.896
377.403
377.662
377.663
377.394
376.846
376.008
374.873
373.432
371.681
369.612
367.223
364.51
361.472
358.106
354.413
350.39
346.036
341.345
336.31
330.912
325.12
318.877
312.072
304.472
303.689
309.735
315.021
319.803
324.214
328.332
332.209
335.877
339.362
342.68
345.844
348.863
351.742
354.485
357.091
359.56
361.889
364.072
366.105
367.98
369.688
371.221
372.568
373.718
374.661
375.385
375.879
376.132
376.131
375.868
375.332
374.513
373.404
371.997
370.285
368.264
365.93
363.279
360.309
357.019
353.408
349.473
345.212
340.62
335.688
330.397
324.716
318.587
311.897
304.414
303.643
309.595
314.789
319.479
323.799
327.828
331.615
335.196
338.595
341.83
344.912
347.851
350.654
353.322
355.856
358.257
360.52
362.642
364.617
366.438
368.097
369.585
370.893
372.01
372.925
373.628
374.106
374.351
374.35
374.093
373.571
372.775
371.696
370.327
368.662
366.697
364.426
361.847
358.957
355.754
352.238
348.405
344.253
339.777
334.964
329.798
324.246
318.249
311.693
304.346
303.589
309.436
314.523
319.108
323.324
327.249
330.936
334.417
337.718
340.857
343.846
346.695
349.41
351.993
354.446
356.768
358.958
361.01
362.919
364.68
366.283
367.721
368.984
370.063
370.947
371.625
372.087
372.322
372.32
372.071
371.565
370.794
369.75
368.425
366.814
364.911
362.712
360.215
357.416
354.313
350.905
347.188
343.16
338.814
334.139
329.115
323.71
317.863
311.461
304.268
303.529
309.255
314.223
318.689
322.787
326.597
330.169
333.538
336.729
339.761
342.646
345.393
348.01
350.498
352.86
355.096
357.203
359.177
361.013
362.706
364.247
365.629
366.844
367.88
368.729
369.38
369.823
370.049
370.046
369.805
369.317
368.574
367.568
366.293
364.741
362.908
360.791
358.384
355.687
352.696
349.408
345.822
341.933
337.733
333.212
328.348
323.108
317.43
311.2
304.181
303.462
309.054
313.888
318.221
322.188
325.869
329.314
332.558
335.628
338.541
341.31
343.945
346.453
348.837
351.099
353.239
355.255
357.143
358.899
360.517
361.991
363.312
364.472
365.462
366.273
366.894
367.317
367.531
367.527
367.296
366.829
366.117
365.154
363.932
362.446
360.691
358.662
356.357
353.771
350.903
347.75
344.308
340.572
336.535
332.183
327.497
322.439
316.949
310.91
304.084
303.387
308.83
313.516
317.703
321.526
325.063
328.368
331.476
334.412
337.194
339.837
342.35
344.739
347.009
349.161
351.197
353.114
354.909
356.577
358.115
359.514
360.769
361.87
362.81
363.58
364.169
364.57
364.772
364.768
364.547
364.101
363.424
362.507
361.344
359.93
358.26
356.328
354.133
351.67
348.936
345.929
342.645
339.077
335.218
331.053
326.561
321.704
316.42
310.591
303.977
303.305
308.584
313.108
317.133
320.797
324.178
327.33
330.288
333.078
335.719
338.224
340.604
342.865
345.011
347.046
348.969
350.779
352.473
354.048
355.498
356.819
358.002
359.04
359.926
360.651
361.206
361.583
361.773
361.768
361.558
361.137
360.496
359.63
358.531
357.194
355.615
353.789
351.712
349.382
346.795
343.946
340.833
337.448
333.781
329.82
325.539
320.902
315.843
310.243
303.861
303.215
308.315
312.66
316.509
319.999
323.21
326.195
328.991
331.623
334.111
336.468
338.704
340.827
342.842
344.75
346.552
348.248
349.835
351.309
352.667
353.902
355.009
355.981
356.809
357.487
358.006
358.358
358.535
358.529
358.331
357.936
357.335
356.522
355.492
354.238
352.757
351.044
349.095
346.907
344.477
341.799
338.87
335.681
332.224
328.482
324.43
320.03
315.215
309.864
303.735
303.117
308.02
312.17
315.827
319.128
322.154
324.96
327.58
330.042
332.365
334.564
336.647
338.623
340.496
342.27
343.944
345.519
346.991
348.36
349.619
350.765
351.791
352.692
353.459
354.087
354.568
354.894
355.057
355.05
354.866
354.498
353.94
353.184
352.227
351.062
349.685
348.092
346.28
344.243
341.98
339.485
336.753
333.775
330.542
327.036
323.232
319.088
314.536
309.455
303.598
303.009
307.697
311.634
315.082
318.178
321.005
323.616
326.048
328.329
330.476
332.505
334.426
336.246
337.97
339.601
341.14
342.586
343.939
345.195
346.352
347.403
348.344
349.17
349.874
350.45
350.89
351.189
351.338
351.331
351.161
350.822
350.309
349.614
348.734
347.662
346.396
344.93
343.262
341.387
339.301
337
334.478
331.725
328.732
325.478
321.939
318.07
313.803
309.012
303.45
302.891
307.344
311.049
314.269
317.143
319.754
322.156
324.387
326.473
328.434
330.284
332.032
333.688
335.255
336.736
338.133
339.445
340.672
341.811
342.859
343.812
344.665
345.413
346.05
346.572
346.97
347.24
347.374
347.367
347.213
346.905
346.438
345.807
345.008
344.035
342.885
341.553
340.037
338.331
336.433
334.338
332.037
329.524
326.785
323.802
320.545
316.973
313.011
308.534
303.29
302.761
306.955
310.405
313.377
316.01
318.388
320.567
322.583
324.463
326.226
327.887
329.455
330.937
332.339
333.664
334.913
336.085
337.181
338.198
339.133
339.984
340.745
341.412
341.981
342.445
342.8
343.041
343.16
343.153
343.015
342.739
342.322
341.758
341.043
340.173
339.144
337.953
336.596
335.069
333.368
331.488
329.422
327.161
324.692
321.996
319.042
315.787
312.154
308.016
303.116
302.617
306.524
309.694
312.394
314.765
316.893
318.831
320.619
322.281
323.836
325.298
326.677
327.979
329.21
330.372
331.466
332.494
333.454
334.344
335.163
335.907
336.573
337.157
337.655
338.061
338.371
338.581
338.685
338.679
338.557
338.315
337.949
337.455
336.828
336.065
335.162
334.117
332.926
331.585
330.09
328.436
326.616
324.621
322.438
320.046
317.416
314.5
311.223
307.452
302.927
302.455
306.041
308.899
311.299
313.386
315.243
316.926
318.471
319.903
321.24
322.495
323.677
324.792
325.844
326.838
327.773
328.651
329.47
330.231
330.93
331.565
332.133
332.631
333.055
333.402
333.667
333.845
333.934
333.928
333.824
333.617
333.304
332.881
332.345
331.693
330.921
330.028
329.008
327.86
326.579
325.161
323.599
321.883
320
317.931
315.645
313.095
310.203
306.832
302.719
302.268
305.489
307.996
310.064
311.839
313.405
314.815
316.104
317.295
318.405
319.444
320.421
321.343
322.212
323.032
323.804
324.528
325.204
325.83
326.406
326.93
327.398
327.808
328.158
328.443
328.661
328.808
328.881
328.875
328.789
328.618
328.36
328.011
327.569
327.031
326.394
325.656
324.814
323.865
322.806
321.632
320.337
318.913
317.346
315.618
313.699
311.542
309.068
306.14
302.486
302.048
304.839
306.942
308.639
310.074
311.327
312.448
313.467
314.407
315.28
316.096
316.863
317.586
318.267
318.91
319.514
320.081
320.61
321.1
321.551
321.96
322.326
322.647
322.92
323.143
323.314
323.428
323.485
323.481
323.413
323.279
323.077
322.804
322.458
322.036
321.537
320.959
320.299
319.555
318.724
317.802
316.784
315.663
314.426
313.057
311.528
309.795
307.781
305.347
302.218
301.771
304.037
305.668
306.947
308.008
308.926
309.741
310.479
311.158
311.787
312.375
312.927
313.446
313.936
314.397
314.831
315.237
315.617
315.969
316.292
316.586
316.848
317.078
317.274
317.434
317.556
317.639
317.679
317.676
317.628
317.532
317.386
317.19
316.941
316.639
316.281
315.865
315.391
314.856
314.259
313.595
312.862
312.053
311.159
310.166
309.051
307.775
306.27
304.401
301.893
301.385
302.971
304.038
304.843
305.499
306.06
306.556
307.003
307.413
307.793
308.148
308.481
308.794
309.088
309.366
309.627
309.872
310.101
310.312
310.507
310.683
310.842
310.98
311.098
311.194
311.267
311.317
311.341
311.339
311.31
311.252
311.165
311.047
310.897
310.715
310.499
310.249
309.963
309.641
309.281
308.881
308.438
307.95
307.408
306.806
306.126
305.341
304.399
303.191
301.458
300.738
301.385
301.771
302.049
302.272
302.461
302.628
302.778
302.915
303.042
303.16
303.272
303.376
303.475
303.567
303.655
303.736
303.813
303.883
303.948
304.007
304.06
304.106
304.145
304.178
304.202
304.219
304.227
304.226
304.216
304.197
304.168
304.128
304.078
304.018
303.945
303.862
303.767
303.659
303.539
303.405
303.257
303.093
302.912
302.71
302.481
302.216
301.892
301.458
300.762
300.299
300.738
301.063
301.319
301.533
301.717
301.881
302.03
302.167
302.293
302.412
302.523
302.628
302.726
302.819
302.906
302.988
303.065
303.136
303.201
303.26
303.313
303.359
303.399
303.431
303.455
303.472
303.48
303.479
303.47
303.45
303.421
303.381
303.331
303.27
303.198
303.115
303.019
302.911
302.791
302.657
302.51
302.347
302.167
301.967
301.742
301.486
301.184
300.811
300.323
300.737
301.923
302.85
303.598
304.229
304.777
305.266
305.71
306.118
306.497
306.852
307.184
307.498
307.793
308.071
308.333
308.578
308.807
309.019
309.214
309.391
309.55
309.689
309.807
309.903
309.977
310.026
310.051
310.049
310.02
309.962
309.874
309.756
309.606
309.423
309.207
308.956
308.671
308.348
307.988
307.588
307.146
306.659
306.121
305.525
304.858
304.098
303.212
302.143
300.811
301.062
302.848
304.297
305.496
306.52
307.418
308.223
308.956
309.631
310.259
310.847
311.398
311.918
312.408
312.87
313.305
313.713
314.093
314.446
314.77
315.064
315.327
315.558
315.755
315.915
316.037
316.12
316.161
316.158
316.109
316.013
315.867
315.67
315.421
315.118
314.759
314.343
313.869
313.333
312.736
312.073
311.341
310.534
309.645
308.662
307.566
306.327
304.9
303.214
301.185
301.318
303.594
305.492
307.096
308.485
309.714
310.822
311.834
312.769
313.64
314.456
315.224
315.947
316.629
317.272
317.878
318.446
318.976
319.467
319.919
320.329
320.697
321.018
321.292
321.516
321.687
321.802
321.859
321.854
321.787
321.653
321.45
321.176
320.829
320.407
319.907
319.328
318.667
317.923
317.091
316.17
315.154
314.035
312.805
311.449
309.943
308.255
306.333
304.104
301.488
301.529
304.219
306.507
308.475
310.199
311.738
313.133
314.413
315.599
316.707
317.745
318.723
319.645
320.516
321.337
322.11
322.836
323.513
324.141
324.719
325.243
325.713
326.124
326.475
326.761
326.979
327.127
327.199
327.194
327.108
326.937
326.678
326.329
325.886
325.346
324.708
323.969
323.126
322.176
321.117
319.943
318.65
317.23
315.671
313.957
312.065
309.957
307.583
304.871
301.748
301.711
304.759
307.392
309.686
311.718
313.546
315.212
316.748
318.175
319.51
320.764
321.946
323.062
324.116
325.111
326.048
326.928
327.75
328.512
329.212
329.849
330.419
330.918
331.343
331.691
331.956
332.135
332.224
332.218
332.114
331.907
331.593
331.169
330.633
329.979
329.206
328.311
327.29
326.141
324.859
323.441
321.881
320.169
318.295
316.242
313.984
311.487
308.699
305.551
301.976
301.87
305.235
308.176
310.767
313.082
315.179
317.1
318.877
320.534
322.087
323.549
324.928
326.232
327.464
328.628
329.725
330.754
331.716
332.609
333.43
334.176
334.844
335.429
335.928
336.335
336.647
336.857
336.961
336.955
336.833
336.591
336.224
335.728
335.1
334.336
333.432
332.385
331.192
329.849
328.353
326.7
324.882
322.891
320.717
318.341
315.741
312.88
309.71
306.165
302.182
302.013
305.662
308.882
311.743
314.318
316.665
318.825
320.831
322.706
324.467
326.127
327.696
329.18
330.584
331.911
333.162
334.338
335.436
336.455
337.393
338.245
339.008
339.677
340.248
340.713
341.07
341.31
341.43
341.423
341.285
341.009
340.59
340.025
339.309
338.437
337.406
336.213
334.854
333.325
331.623
329.743
327.679
325.422
322.962
320.282
317.36
314.16
310.636
306.725
302.37
302.143
306.049
309.522
312.631
315.446
318.025
320.409
322.63
324.711
326.669
328.519
330.269
331.926
333.495
334.979
336.379
337.694
338.924
340.066
341.116
342.071
342.927
343.677
344.316
344.838
345.238
345.508
345.643
345.636
345.482
345.173
344.706
344.073
343.272
342.297
341.145
339.811
338.292
336.585
334.686
332.589
330.29
327.781
325.051
322.084
318.859
315.343
311.49
307.242
302.543
302.26
306.401
310.106
313.442
316.48
319.274
321.867
324.289
326.564
328.709
330.739
332.661
334.483
336.21
337.844
339.386
340.836
342.191
343.451
344.61
345.664
346.608
347.436
348.142
348.719
349.16
349.459
349.609
349.602
349.432
349.093
348.578
347.882
346.999
345.926
344.657
343.189
341.518
339.641
337.553
335.251
332.73
329.981
326.996
323.76
320.251
316.439
312.281
307.72
302.702
302.368
306.723
310.641
314.186
317.429
320.422
323.209
325.82
328.277
330.598
332.797
334.882
336.861
338.737
340.514
342.192
343.77
345.246
346.617
347.88
349.029
350.058
350.96
351.73
352.36
352.842
353.168
353.332
353.325
353.141
352.773
352.213
351.456
350.496
349.329
347.949
346.354
344.538
342.499
340.234
337.738
335.006
332.032
328.807
325.318
321.544
317.456
313.014
308.162
302.85
302.467
307.018
311.131
314.868
318.299
321.478
324.445
327.231
329.859
332.345
334.702
336.941
339.067
341.085
342.996
344.802
346.502
348.093
349.571
350.932
352.17
353.28
354.254
355.085
355.764
356.285
356.638
356.815
356.809
356.611
356.215
355.613
354.798
353.766
352.51
351.026
349.309
347.357
345.166
342.733
340.054
337.125
333.94
330.49
326.764
322.743
318.399
313.693
308.572
302.987
302.557
307.288
311.579
315.493
319.098
322.447
325.581
328.529
331.315
333.954
336.46
338.842
341.107
343.257
345.296
347.222
349.036
350.735
352.314
353.768
355.091
356.277
357.318
358.207
358.934
359.49
359.869
360.059
360.054
359.844
359.422
358.78
357.911
356.81
355.471
353.888
352.059
349.979
347.645
345.055
342.204
339.091
335.708
332.05
328.104
323.853
319.272
314.321
308.951
303.114
302.639
307.534
311.988
316.064
319.828
323.333
326.62
329.719
332.65
335.432
338.076
340.591
342.984
345.258
347.415
349.455
351.376
353.175
354.848
356.389
357.792
359.05
360.154
361.097
361.868
362.459
362.861
363.064
363.059
362.838
362.392
361.713
360.794
359.629
358.212
356.538
354.603
352.404
349.937
347.2
344.191
340.906
337.341
333.489
329.339
324.876
320.076
314.9
309.3
303.23
302.713
307.758
312.36
316.582
320.491
324.14
327.567
330.803
333.869
336.781
339.552
342.19
344.701
347.09
349.356
351.501
353.521
355.414
357.174
358.796
360.274
361.598
362.761
363.754
364.567
365.19
365.614
365.829
365.825
365.593
365.125
364.412
363.446
362.222
360.733
358.974
356.942
354.632
352.043
349.171
346.015
342.572
338.839
334.808
330.472
325.814
320.812
315.43
309.619
303.337
302.781
307.96
312.696
317.051
321.091
324.869
328.424
331.784
334.972
338.003
340.89
343.641
346.261
348.754
351.121
353.362
355.473
357.452
359.293
360.99
362.535
363.921
365.138
366.177
367.028
367.681
368.126
368.352
368.349
368.108
367.619
366.875
365.866
364.588
363.033
361.196
359.075
356.664
353.962
350.967
347.677
344.09
340.202
336.009
331.502
326.667
321.482
315.912
309.91
303.434
302.841
308.14
312.996
317.471
321.629
325.523
329.192
332.665
335.963
339.102
342.093
344.945
347.664
350.252
352.71
355.038
357.232
359.289
361.203
362.968
364.575
366.017
367.284
368.366
369.252
369.932
370.395
370.631
370.629
370.379
369.872
369.1
368.053
366.725
365.11
363.204
361.001
358.499
355.695
352.588
349.177
345.459
341.432
337.092
332.431
327.436
322.085
316.346
310.171
303.522
302.895
308.3
313.263
317.842
322.105
326.103
329.873
333.446
336.842
340.076
343.161
346.104
348.911
351.584
354.124
356.529
358.798
360.925
362.905
364.731
366.394
367.886
369.197
370.317
371.234
371.939
372.419
372.664
372.663
372.406
371.883
371.085
370.003
368.632
366.963
364.994
362.718
360.134
357.24
354.033
350.513
346.679
342.528
338.057
333.259
328.121
322.623
316.732
310.404
303.6
302.941
308.44
313.495
318.167
322.521
326.608
330.468
334.128
337.61
340.929
344.095
347.118
350.002
352.75
355.361
357.836
360.17
362.359
364.397
366.276
367.989
369.525
370.876
372.029
372.975
373.701
374.196
374.449
374.449
374.186
373.648
372.828
371.716
370.306
368.59
366.565
364.226
361.57
358.596
355.301
351.686
347.749
343.489
338.903
333.984
328.721
323.094
317.071
310.608
303.668
302.981
308.559
313.694
318.444
322.876
327.041
330.977
334.713
338.268
341.659
344.896
347.987
350.938
353.75
356.424
358.957
361.348
363.59
365.678
367.604
369.359
370.934
372.318
373.501
374.471
375.216
375.724
375.984
375.985
375.716
375.166
374.326
373.188
371.745
369.989
367.916
365.522
362.804
359.761
356.39
352.693
348.668
344.315
339.63
334.607
329.237
323.498
317.362
310.784
303.726
303.014
308.659
313.859
318.675
323.172
327.402
331.401
335.199
338.816
342.267
345.563
348.712
351.718
354.584
357.309
359.893
362.331
364.618
366.748
368.713
370.503
372.111
373.523
374.731
375.72
376.481
377
377.267
377.268
376.994
376.434
375.579
374.419
372.947
371.158
369.045
366.605
363.835
360.734
357.301
353.535
349.436
345.004
340.236
335.128
329.667
323.836
317.605
310.93
303.775
303.041
308.738
313.991
318.86
323.409
327.69
331.74
335.588
339.254
342.754
346.097
349.292
352.343
355.252
358.019
360.642
363.118
365.441
367.605
369.601
371.421
373.054
374.489
375.716
376.722
377.496
378.024
378.295
378.297
378.02
377.451
376.583
375.406
373.912
372.095
369.95
367.473
364.662
361.514
358.03
354.209
350.052
345.557
340.723
335.545
330.012
324.107
317.799
311.047
303.814
303.06
308.798
314.09
318.998
323.586
327.906
331.994
335.88
339.583
343.119
346.497
349.727
352.811
355.753
358.551
361.204
363.709
366.059
368.248
370.268
372.109
373.762
375.215
376.457
377.475
378.258
378.793
379.068
379.07
378.79
378.216
377.338
376.147
374.636
372.799
370.63
368.125
365.283
362.101
358.578
354.716
350.514
345.972
341.088
335.858
330.271
324.31
317.946
311.136
303.844
303.074
308.837
314.156
319.09
323.705
328.05
332.164
336.074
339.802
343.362
346.764
350.017
353.124
356.087
358.906
361.58
364.103
366.472
368.678
370.713
372.569
374.235
375.699
376.951
377.977
378.767
379.306
379.583
379.587
379.304
378.726
377.841
376.642
375.12
373.269
371.084
368.561
365.697
362.492
358.944
355.054
350.822
346.249
341.332
336.067
330.444
324.446
318.043