/*--------------------------------*- C++ -*----------------------------------*\
| =========                 |                                                 |
| \\      /  F ield         | OpenFOAM: The Open Source CFD Toolbox           |
|  \\    /   O peration     | Version:  5.x                                   |
|   \\  /    A nd           | Web:      www.OpenFOAM.org                      |
|    \\/     M anipulation  |                                                 |
\*---------------------------------------------------------------------------*/
FoamFile
{
    version     2.0;
    format      ascii;
    class       volScalarField;
    location    "1";
    object      gradTy;
}
// * * * * * * * * * * * * * * * * * * * * * * * * * * * * * * * * * * * * * //

dimensions      [0 -1 0 1 0 0 0];

internalField   nonuniform List<scalar> 
25000
(
5305.55
10889.2
14523.7
17241.4
19455.1
21358.1
23053.4
24601.4
26040.4
27395.7
28684.4
29918.6
31106.3
32252.8
33360.9
34432
35465.7
36460.1
37412.4
38318.6
39174
39972.8
40708.8
41374.9
41964
42468.2
42879.6
43190.4
43392.4
43477.8
43439.2
43269.2
42961.2
42508.9
41906.5
41149
40231.8
39150.6
37901.3
36479.5
34880
33095.8
31116.2
28924.6
26492.8
23772
20672.1
17013.8
12399.2
5811.56
2581.59
6627.85
9745.54
12255.3
14370.3
16219.5
17881.9
19408.1
20831.5
22174.9
23454.3
24680.7
25861.9
27002.6
28105.7
29172.2
30201.7
31192.3
32141.1
33044.1
33896.6
34692.7
35426.3
36090.4
36677.6
37180.3
37590.7
37900.6
38102.3
38187.9
38149.8
37980.9
37674.4
37224.3
36624.9
35871.1
34958.3
33882.7
32640.1
31226.5
29637.3
27866.2
25903.9
23736
21339.2
18674.6
15675.9
12228.3
8133.44
3086.12
1656.77
4669.4
7266.88
9506.96
11472.2
13231.5
14835.8
16321.8
17715.7
19036.5
20297.7
21509.1
22677.3
23806.7
24899.8
25957.2
26978.4
27961.5
28903.3
29799.9
30646.5
31437.3
32166.1
32826
33409.6
33909.4
34317.5
34625.9
34826.8
34912.5
34875.5
34708.7
34405.5
33959.8
33366.1
32619.5
31715.7
30650.9
29421.6
28024.3
26455.1
24709.1
22779.4
20655.4
18321
15751.1
12907.5
9735.07
6166.14
2158.33
1245.44
3634.18
5827.12
7813.73
9617.68
11270.4
12801.1
14233.8
15587.4
16876.4
18111.7
19301.3
20450.7
21563.5
22641.8
23685.8
24694.6
25666.3
26597.8
27484.8
28322.6
29105.4
29827
30480.5
31058.7
31554
31958.7
32264.8
32464.6
32550.5
32515
32351.3
32052.8
31613.6
31028.4
30292.5
29401.9
28353.1
27143.1
25769.3
24228.7
22518.3
20633.7
18568.8
16314.6
13858.4
11183.9
8273.25
5117.55
1742.52
1018.59
3012.49
4905.87
6677.44
8328.75
9871.82
11321.7
12693
13998.4
15248.5
16451.3
17613.1
18738.3
19829.7
20888.5
21914.8
22907.4
23864.2
24781.7
25656
26482
27254.2
27966.2
28611.2
29182.1
29671.4
30071.4
30374.4
30572.6
30658.6
30625.2
30465.5
30173.1
29742.5
29168.4
28446.4
27572.9
26544.8
25359.8
24015.9
22511.6
20845.3
19015.3
17019.4
14854.8
12518
10006.7
7322.34
4477.87
1509.65
873.265
2597.98
4266.58
5860.6
7374.78
8812.08
10179.5
11485.2
12737.3
13942.9
15108
16237
17333.2
18398.5
19433.6
20438.2
21410.8
22349
23249.3
24107.7
24919
25677.8
26377.7
27012.1
27573.9
28055.6
28449.7
28748.6
28944.8
29030.8
28999.7
28844.8
28560
28139.8
27579.2
26874.2
26021.5
25018.5
23863.5
22555.2
21093.3
19477.8
17709.3
15788.7
13717.7
11499
9138.18
6645.54
4040.62
1356.7
770.062
2297.81
3791.95
5238.67
6631.58
7969.84
9256.07
10494.6
11690.2
12847.6
13970.6
15062.6
16125.5
17160.6
18168.1
19147.1
20096
21012.1
21891.9
22731.1
23524.9
24267.6
24953
25574.5
26125.1
26597.6
26984.5
27278.4
27471.9
27557.9
27529.5
27380.2
27104.1
26696
26151.3
25466.1
24637.6
23663.6
22542.9
21275.2
19860.9
18301.6
16599.5
14757.9
12781.5
10676.8
8453.46
6125.33
3712.8
1244.23
691.105
2065.72
3419.11
4741.35
6026.71
7273.06
8480.85
9652.07
10789.4
11895.7
12973.4
14024.6
15050.6
16051.7
17027.8
17977.6
18899.2
19789.8
20645.8
21462.8
22236.1
22959.9
23628.3
24234.6
24772.2
25233.7
25612.1
25899.9
26090.2
26175.8
26150.2
26007.2
25741
25346.6
24819.8
24157.1
23355.9
22414.4
21332.1
20109.2
18747
17248
15615.9
13855.5
11973.5
9978.47
7881.85
5698.57
3448.01
1154.32
627.151
1876.55
3112.02
4326.5
5515.35
6676.22
7808.59
8913.14
9991.21
11044.4
12074.1
13081.4
14067
15030.8
15971.9
16889.1
17780
18641.7
19470.6
20262.4
21012.2
21714.5
22363.2
22952.2
23474.5
23923.4
24291.8
24572.6
24758.9
24843.9
24821.2
24685
24429.7
24050.5
23543.6
22905.7
22134.6
21228.9
20188.5
19014.1
17707.8
16272.7
14713.4
13035.8
11247.7
9358.73
7380.87
5328.97
3220.94
1077.66
572.941
1715.56
2848.79
3967.63
5068.48
6149.23
7208.96
8247.68
9265.91
10264.4
11243.8
12204.6
13146.8
14069.9
14972.9
15854
16710.9
17540.5
18339.2
19102.7
19826.1
20504
21130.7
21699.8
22205
22639.4
22996.4
23268.9
23450.5
23534.5
23514.8
23385.8
23142.2
22779.7
22294.4
21683.6
20945.2
20078.2
19082.9
17960.5
16713.3
15345.2
13861.3
12268
10573.6
8788.19
6923.71
4994.4
3016.68
1008.95
525.262
1573.57
2615.46
3647.38
4666.64
5671.45
6660.86
7634.52
8592.48
9534.96
10462.1
11373.9
12270
13149.5
14011.2
14853.1
15672.7
16467.1
17232.4
17964.5
18658.6
19309.4
19911.4
20458.4
20944.3
21362.5
21706.4
21969.5
22145.5
22228
22211.3
22089.9
21858.9
21514.2
21052.2
20470.5
19767.2
18941.8
17994.6
16927.2
15742.3
14444.1
13037.8
11530.4
9930.12
8247.01
6492.74
4680.7
2825.96
944.943
482.041
1444.61
2402.77
3354.01
4296.35
5228.37
6149.2
7058.36
7955.63
8840.9
9714
10574.6
11421.9
12255.1
13072.4
13872
14651.3
15407.2
16136.1
16833.8
17495.7
18116.8
18691.5
19214.1
19678.5
20078.5
20407.9
20660.4
20829.9
20910.4
20896.5
20783
20565.3
20239.5
19802.4
19251.6
18585.8
17804.4
16908.2
15898.8
14779.2
13553.5
12227.4
10807.6
9302.41
7721.5
6076
4378.47
2642.7
883.527
441.886
1324.63
2204.35
3079.31
3948.07
4809.56
5663.01
6507.94
7344.01
8170.9
8988.23
9795.42
10591.6
11375.7
12145.9
12900.3
13636.2
14350.6
15040.1
15700.5
16327.3
16915.8
17460.7
17956.4
18397.3
18777.3
19090.6
19331.1
19493.2
19571.3
19560
19454.6
19250.8
18944.9
18534.1
18016.1
17389.9
16655
15812.3
14863.7
13812.2
12662
11418.5
10088.5
8679.9
7201.97
5665.21
4081.27
2462.82
823.298
403.831
1210.8
2015.74
2817.46
3614.93
4407.37
5194.18
5974.88
6749.09
7516.39
8276.29
9028.08
9770.81
10503.2
11223.5
11929.8
12619.4
13289.5
13936.5
14556.7
15145.7
15699
16211.5
16678.1
17093.2
17451.4
17746.9
17974.3
18128.1
18203
18194.1
18097
17907.6
17622.6
17239.4
16755.9
16171.3
15485.2
14698.7
13813.7
12833.1
11761.1
10602.9
9365.01
8055
6681.59
5254.55
3784.66
2283.49
763.295
367.191
1101.12
1833.73
2564.22
3291.9
4016.2
4736.66
5452.88
6164.45
6870.94
7571.76
8266.18
8953.16
9631.41
10299.3
10954.7
11595.2
12218
12819.8
13397
13945.4
14460.9
14938.6
15373.7
15761.1
16095.5
16371.8
16584.7
16729.1
16800.3
16793.5
16704.8
16530.3
16267.1
15912.7
15465.4
14924.2
14289.2
13561.4
12742.5
11835.6
10844.6
9774.48
8631.36
7422.33
6155.52
4839.96
3485.53
2102.8
702.856
331.475
994.145
1655.99
2316.52
2975.28
3631.88
4285.98
4937.23
5585.28
6229.67
6869.81
7504.94
8134.03
8755.8
9368.64
9970.59
10559.3
11132.1
11686
12217.4
12722.7
13197.8
13638.3
14039.7
14397.3
14706.2
14961.7
15158.8
15293
15359.8
15354.9
15274.6
15115.5
14874.9
14550.4
14140.7
13644.9
13063.1
12396.2
11646.2
10815.7
9908.44
8929.2
7883.59
6778.2
5620.47
4418.68
3181.8
1919.41
641.537
296.326
888.821
1480.85
2072.13
2662.38
3251.36
3838.82
4424.49
5008.03
5589.03
6166.9
6740.91
7310.06
7873.13
8428.58
8974.58
9508.96
10029.2
10532.5
11015.7
11475.3
11907.6
12308.7
12674.3
13000.1
13281.8
13514.9
13695.1
13818.1
13879.9
13876.5
13804.7
13661.4
13444
13150.6
12779.9
12331.1
11804.5
11200.9
10522.1
9770.68
8950.03
8064.49
7119.24
6120.27
5074.35
3988.94
2872.13
1732.51
579.051
261.492
784.402
1307.09
1829.42
2351.26
2872.44
3392.81
3912.15
4430.18
4946.5
5460.58
5971.71
6478.99
6981.26
7477.11
7964.85
8442.5
8907.78
9358.12
9790.64
10202.2
10589.5
10948.9
11276.7
11569
11821.8
12031.2
12193.3
12304.2
12360.3
12358.3
12295
12167.7
11974.2
11712.9
11382.4
10982.3
10512.8
9974.64
9369.44
8699.57
7968.16
7179.09
6337.02
5447.32
4516.03
3549.79
2555.78
1541.62
515.24
226.793
680.362
1133.87
1587.29
2040.56
2493.6
2946.32
3398.54
3850.02
4300.42
4749.26
5195.9
5639.51
6079.05
6513.26
6940.61
7359.34
7767.42
8162.56
8542.22
8903.64
9243.83
9559.64
9847.77
10104.8
10327.2
10511.6
10654.4
10752.4
10802.4
10801.3
10746.5
10635.6
10466.6
10238.2
9949.24
9599.31
9188.56
8717.77
8188.38
7602.47
6962.82
6272.87
5536.71
4759.05
3945.18
3100.91
2232.5
1346.59
450.048
192.112
576.353
960.637
1344.99
1729.4
2113.86
2498.3
2882.6
3266.56
3649.88
4032.15
4412.8
4791.12
5166.19
5536.91
5901.96
6259.8
6608.68
6946.62
7271.43
7580.73
7871.95
8142.38
8389.18
8609.41
8800.1
8958.25
9080.91
9165.21
9208.43
9208.02
9161.68
9067.42
8923.56
8728.85
8482.43
8183.96
7833.57
7431.96
6980.36
6480.59
5935.04
5346.65
4718.94
4055.94
3362.16
2642.55
1902.45
1147.48
383.499
157.376
472.162
787.042
1102.07
1417.28
1732.68
2048.22
2363.84
2679.37
2994.56
3309.06
3622.42
3934.01
4243.08
4548.7
4849.77
5145
5432.93
5711.92
5980.15
6235.63
6476.24
6699.73
6903.74
7085.85
7243.58
7374.47
7476.07
7546.02
7582.05
7582.08
7544.21
7466.78
7348.44
7188.15
6985.21
6739.35
6450.7
6119.84
5747.8
5336.1
4886.71
4402.09
3885.12
3339.14
2767.88
2175.4
1566.1
944.593
315.69
122.549
367.685
612.931
858.347
1103.98
1349.85
1595.94
1842.2
2088.49
2334.64
2580.37
2825.3
3068.96
3310.73
3549.9
3785.57
4016.75
4242.27
4460.83
4671.01
4871.25
5059.87
5235.1
5395.1
5537.95
5661.72
5764.46
5844.27
5899.29
5927.74
5928
5898.56
5838.16
5745.72
5620.42
5461.75
5269.48
5043.72
4784.94
4493.96
4171.97
3820.52
3441.54
3037.29
2610.39
2163.75
1700.56
1224.23
738.385
246.773
87.6238
262.904
438.281
613.809
789.532
965.471
1141.62
1317.95
1494.36
1670.73
1846.86
2022.47
2197.22
2370.68
2542.3
2711.46
2877.42
3039.36
3196.34
3347.31
3491.17
3626.7
3752.63
3867.62
3970.32
4059.31
4133.21
4190.65
4230.28
4250.83
4251.14
4230.13
4186.88
4120.63
4030.8
3917.01
3779.1
3617.17
3431.54
3222.82
2991.85
2739.77
2467.94
2178.01
1871.85
1551.55
1219.39
877.83
529.453
176.945
52.613
157.861
263.174
368.59
474.138
579.834
685.679
791.651
897.7
1003.75
1109.67
1215.31
1320.45
1424.82
1528.12
1629.95
1729.87
1827.37
1921.9
2012.83
2099.48
2181.12
2256.99
2326.27
2388.15
2441.79
2486.33
2520.97
2544.88
2557.3
2557.54
2544.93
2518.94
2479.1
2425.06
2356.6
2273.63
2176.19
2064.5
1938.91
1799.93
1648.25
1484.7
1310.27
1126.07
933.372
733.547
528.07
318.497
106.443
17.5453
52.6436
87.7647
122.922
158.126
193.383
228.693
264.049
299.435
334.823
370.175
405.435
440.532
475.379
509.866
543.866
577.232
609.794
641.363
671.731
700.671
727.939
753.279
776.423
797.093
815.01
829.891
841.461
849.451
853.605
853.688
849.484
840.809
827.509
809.468
786.612
758.911
726.382
689.094
647.166
600.772
550.139
495.545
437.319
375.836
311.518
244.823
176.244
106.298
35.5251
-17.5424
-52.6351
-87.7504
-122.902
-158.099
-193.35
-228.653
-264.001
-299.38
-334.761
-370.105
-405.356
-440.446
-475.284
-509.764
-543.757
-577.116
-609.672
-641.236
-671.6
-700.537
-727.804
-753.144
-776.288
-796.962
-814.883
-829.771
-841.349
-849.348
-853.513
-853.608
-849.417
-840.756
-827.471
-809.445
-786.604
-758.918
-726.402
-689.126
-647.21
-600.825
-550.199
-495.609
-437.383
-375.899
-311.575
-244.871
-176.28
-106.321
-35.5329
-52.6102
-157.853
-263.16
-368.57
-474.112
-579.802
-685.64
-791.605
-897.647
-1003.69
-1109.6
-1215.23
-1320.36
-1424.73
-1528.02
-1629.84
-1729.75
-1827.25
-1921.78
-2012.7
-2099.35
-2180.99
-2256.85
-2326.14
-2388.02
-2441.66
-2486.22
-2520.85
-2544.77
-2557.21
-2557.46
-2544.87
-2518.89
-2479.06
-2425.04
-2356.59
-2273.63
-2176.21
-2064.53
-1938.95
-1799.98
-1648.31
-1484.77
-1310.33
-1126.13
-933.428
-733.595
-528.107
-318.52
-106.451
-87.6211
-262.896
-438.267
-613.79
-789.507
-965.44
-1141.59
-1317.9
-1494.31
-1670.67
-1846.79
-2022.4
-2197.14
-2370.59
-2542.2
-2711.35
-2877.31
-3039.25
-3196.21
-3347.19
-3491.04
-3626.57
-3752.5
-3867.49
-3970.19
-4059.19
-4133.1
-4190.54
-4230.18
-4250.74
-4251.06
-4230.07
-4186.83
-4120.6
-4030.78
-3917
-3779.11
-3617.19
-3431.57
-3222.86
-2991.9
-2739.82
-2468
-2178.08
-1871.91
-1551.61
-1219.44
-877.866
-529.475
-176.953
-122.547
-367.678
-612.918
-858.329
-1103.96
-1349.82
-1595.91
-1842.15
-2088.44
-2334.58
-2580.3
-2825.23
-3068.88
-3310.65
-3549.8
-3785.47
-4016.64
-4242.16
-4460.72
-4670.89
-4871.13
-5059.75
-5234.98
-5394.97
-5537.83
-5661.6
-5764.35
-5844.17
-5899.19
-5927.66
-5927.92
-5898.5
-5838.11
-5745.68
-5620.4
-5461.74
-5269.48
-5043.74
-4784.97
-4494
-4172.02
-3820.57
-3441.59
-3037.35
-2610.45
-2163.8
-1700.6
-1224.26
-738.406
-246.78
-157.374
-472.155
-787.031
-1102.05
-1417.26
-1732.65
-2048.19
-2363.8
-2679.32
-2994.5
-3309
-3622.35
-3933.94
-4243
-4548.61
-4849.67
-5144.9
-5432.83
-5711.81
-5980.03
-6235.51
-6476.12
-6699.61
-6903.62
-7085.73
-7243.47
-7374.37
-7475.97
-7545.92
-7581.97
-7582.01
-7544.14
-7466.73
-7348.41
-7188.12
-6985.2
-6739.36
-6450.72
-6119.87
-5747.84
-5336.14
-4886.76
-4402.14
-3885.18
-3339.2
-2767.93
-2175.45
-1566.13
-944.612
-315.697
-192.11
-576.347
-960.627
-1344.97
-1729.38
-2113.84
-2498.27
-2882.56
-3266.52
-3649.83
-4032.09
-4412.74
-4791.05
-5166.12
-5536.83
-5901.87
-6259.71
-6608.58
-6946.52
-7271.32
-7580.62
-7871.84
-8142.27
-8389.07
-8609.31
-8800
-8958.15
-9080.82
-9165.13
-9208.35
-9207.95
-9161.62
-9067.37
-8923.53
-8728.82
-8482.42
-8183.96
-7833.58
-7431.98
-6980.39
-6480.63
-5935.08
-5346.7
-4718.99
-4055.98
-3362.2
-2642.59
-1902.48
-1147.5
-383.505
-226.792
-680.357
-1133.87
-1587.28
-2040.54
-2493.58
-2946.29
-3398.51
-3849.98
-4300.38
-4749.22
-5195.85
-5639.45
-6078.99
-6513.19
-6940.53
-7359.26
-7767.33
-8162.47
-8542.12
-8903.54
-9243.73
-9559.54
-9847.67
-10104.7
-10327.1
-10511.5
-10654.4
-10752.4
-10802.3
-10801.2
-10746.4
-10635.5
-10466.6
-10238.2
-9949.23
-9599.3
-9188.57
-8717.79
-8188.41
-7602.51
-6962.86
-6272.91
-5536.75
-4759.09
-3945.22
-3100.94
-2232.53
-1346.6
-450.053
-261.49
-784.398
-1307.09
-1829.41
-2351.24
-2872.42
-3392.79
-3912.13
-4430.15
-4946.46
-5460.54
-5971.67
-6478.94
-6981.2
-7477.05
-7964.79
-8442.43
-8907.71
-9358.03
-9790.56
-10202.2
-10589.4
-10948.9
-11276.6
-11568.9
-11821.7
-12031.1
-12193.2
-12304.1
-12360.3
-12358.2
-12294.9
-12167.7
-11974.2
-11712.8
-11382.4
-10982.3
-10512.8
-9974.65
-9369.47
-8699.6
-7968.19
-7179.13
-6337.06
-5447.36
-4516.06
-3549.82
-2555.81
-1541.64
-515.245
-296.325
-888.818
-1480.85
-2072.12
-2662.37
-3251.35
-3838.8
-4424.47
-5008.01
-5589
-6166.87
-6740.87
-7310.02
-7873.08
-8428.53
-8974.53
-9508.9
-10029.2
-10532.5
-11015.6
-11475.3
-11907.6
-12308.6
-12674.2
-13000
-13281.7
-13514.9
-13695.1
-13818.1
-13879.8
-13876.5
-13804.7
-13661.4
-13444
-13150.6
-12779.8
-12331.1
-11804.5
-11201
-10522.2
-9770.7
-8950.05
-8064.52
-7119.27
-6120.3
-5074.38
-3988.97
-2872.15
-1732.52
-579.055
-331.474
-994.143
-1655.99
-2316.52
-2975.27
-3631.87
-4285.97
-4937.22
-5585.26
-6229.65
-6869.79
-7504.91
-8134
-8755.77
-9368.6
-9970.54
-10559.3
-11132.1
-11685.9
-12217.4
-12722.7
-13197.7
-13638.3
-14039.7
-14397.2
-14706.2
-14961.6
-15158.8
-15293
-15359.7
-15354.9
-15274.6
-15115.5
-14874.8
-14550.4
-14140.7
-13644.9
-13063.1
-12396.2
-11646.2
-10815.7
-9908.46
-8929.22
-7883.62
-6778.22
-5620.49
-4418.7
-3181.82
-1919.42
-641.54
-367.191
-1101.12
-1833.73
-2564.22
-3291.9
-4016.2
-4736.66
-5452.87
-6164.44
-6870.92
-7571.75
-8266.16
-8953.14
-9631.38
-10299.2
-10954.6
-11595.2
-12218
-12819.8
-13396.9
-13945.4
-14460.8
-14938.5
-15373.6
-15761
-16095.4
-16371.7
-16584.6
-16729.1
-16800.2
-16793.5
-16704.7
-16530.3
-16267.1
-15912.7
-15465.3
-14924.2
-14289.2
-13561.4
-12742.6
-11835.6
-10844.6
-9774.5
-8631.37
-7422.35
-6155.54
-4839.98
-3485.54
-2102.8
-702.859
-403.831
-1210.8
-2015.74
-2817.46
-3614.93
-4407.37
-5194.17
-5974.87
-6749.08
-7516.39
-8276.28
-9028.07
-9770.79
-10503.2
-11223.5
-11929.8
-12619.4
-13289.4
-13936.5
-14556.6
-15145.7
-15699
-16211.5
-16678
-17093.2
-17451.3
-17746.9
-17974.3
-18128
-18202.9
-18194.1
-18096.9
-17907.6
-17622.6
-17239.3
-16755.9
-16171.2
-15485.2
-14698.7
-13813.7
-12833.1
-11761.1
-10602.9
-9365.02
-8055.01
-6681.6
-5254.56
-3784.67
-2283.5
-763.297
-441.886
-1324.63
-2204.36
-3079.32
-3948.08
-4809.56
-5663.01
-6507.94
-7344.01
-8170.9
-8988.23
-9795.42
-10591.6
-11375.7
-12145.9
-12900.3
-13636.2
-14350.6
-15040.1
-15700.4
-16327.3
-16915.8
-17460.7
-17956.4
-18397.2
-18777.3
-19090.5
-19331.1
-19493.2
-19571.2
-19560
-19454.5
-19250.7
-18944.9
-18534
-18016.1
-17389.8
-16655
-15812.3
-14863.7
-13812.2
-12662
-11418.5
-10088.5
-8679.9
-7201.97
-5665.22
-4081.28
-2462.82
-823.299
-482.042
-1444.61
-2402.77
-3354.02
-4296.35
-5228.38
-6149.21
-7058.37
-7955.64
-8840.91
-9714.01
-10574.6
-11421.9
-12255.1
-13072.4
-13872
-14651.3
-15407.2
-16136.1
-16833.8
-17495.7
-18116.8
-18691.5
-19214
-19678.4
-20078.5
-20407.9
-20660.4
-20829.9
-20910.4
-20896.5
-20783
-20565.3
-20239.5
-19802.4
-19251.6
-18585.8
-17804.4
-16908.1
-15898.7
-14779.1
-13553.5
-12227.4
-10807.6
-9302.41
-7721.49
-6076
-4378.47
-2642.7
-883.526
-525.263
-1573.57
-2615.47
-3647.39
-4666.65
-5671.46
-6660.87
-7634.53
-8592.5
-9534.97
-10462.1
-11373.9
-12270
-13149.6
-14011.2
-14853.1
-15672.8
-16467.1
-17232.4
-17964.5
-18658.6
-19309.4
-19911.4
-20458.5
-20944.3
-21362.5
-21706.4
-21969.5
-22145.5
-22228
-22211.3
-22089.9
-21858.9
-21514.2
-21052.2
-20470.4
-19767.2
-18941.7
-17994.6
-16927.2
-15742.3
-14444.1
-13037.8
-11530.4
-9930.11
-8247
-6492.73
-4680.7
-2825.95
-944.941
-572.943
-1715.56
-2848.8
-3967.64
-5068.49
-6149.24
-7208.98
-8247.7
-9265.93
-10264.4
-11243.8
-12204.6
-13146.8
-14070
-14973
-15854.1
-16710.9
-17540.6
-18339.2
-19102.7
-19826.1
-20504
-21130.7
-21699.9
-22205
-22639.5
-22996.4
-23268.9
-23450.5
-23534.5
-23514.8
-23385.8
-23142.2
-22779.7
-22294.4
-21683.6
-20945.1
-20078.2
-19082.9
-17960.4
-16713.3
-15345.2
-13861.2
-12268
-10573.6
-8788.17
-6923.69
-4994.39
-3016.68
-1008.95
-627.153
-1876.56
-3112.03
-4326.51
-5515.36
-6676.24
-7808.61
-8913.16
-9991.24
-11044.4
-12074.1
-13081.5
-14067.1
-15030.8
-15972
-16889.1
-17780
-18641.7
-19470.6
-20262.5
-21012.2
-21714.5
-22363.3
-22952.2
-23474.6
-23923.5
-24291.8
-24572.6
-24758.9
-24843.9
-24821.3
-24685
-24429.7
-24050.5
-23543.6
-22905.7
-22134.6
-21228.9
-20188.5
-19014.1
-17707.7
-16272.7
-14713.4
-13035.8
-11247.7
-9358.71
-7380.85
-5328.96
-3220.93
-1077.66
-691.106
-2065.72
-3419.12
-4741.36
-6026.72
-7273.08
-8480.87
-9652.09
-10789.4
-11895.7
-12973.5
-14024.7
-15050.6
-16051.8
-17027.8
-17977.7
-18899.3
-19789.8
-20645.8
-21462.9
-22236.1
-22960
-23628.3
-24234.7
-24772.2
-25233.8
-25612.1
-25900
-26090.2
-26175.9
-26150.3
-26007.2
-25741
-25346.7
-24819.8
-24157.1
-23355.9
-22414.4
-21332.1
-20109.1
-18746.9
-17248
-15615.8
-13855.5
-11973.4
-9978.44
-7881.82
-5698.55
-3448
-1154.31
-770.064
-2297.81
-3791.96
-5238.69
-6631.6
-7969.86
-9256.09
-10494.6
-11690.2
-12847.6
-13970.7
-15062.6
-16125.6
-17160.7
-18168.2
-19147.2
-20096.1
-21012.2
-21892
-22731.2
-23525
-24267.7
-24953.1
-25574.6
-26125.2
-26597.7
-26984.6
-27278.5
-27472
-27558
-27529.5
-27380.2
-27104.1
-26696
-26151.3
-25466.1
-24637.6
-23663.6
-22542.9
-21275.1
-19860.9
-18301.6
-16599.4
-14757.8
-12781.4
-10676.8
-8453.42
-6125.3
-3712.78
-1244.23
-873.267
-2597.99
-4266.59
-5860.61
-7374.8
-8812.11
-10179.5
-11485.2
-12737.3
-13943
-15108
-16237
-17333.2
-18398.6
-19433.7
-20438.3
-21410.9
-22349.1
-23249.4
-24107.8
-24919.1
-25677.9
-26377.8
-27012.2
-27574
-28055.7
-28449.8
-28748.7
-28944.8
-29030.9
-28999.8
-28844.9
-28560.1
-28139.8
-27579.2
-26874.3
-26021.5
-25018.5
-23863.4
-22555.2
-21093.3
-19477.8
-17709.3
-15788.7
-13717.6
-11499
-9138.14
-6645.51
-4040.6
-1356.69
-1018.59
-3012.5
-4905.87
-6677.45
-8328.77
-9871.84
-11321.7
-12693
-13998.5
-15248.5
-16451.3
-17613.2
-18738.4
-19829.7
-20888.6
-21914.9
-22907.6
-23864.3
-24781.8
-25656.1
-26482.1
-27254.3
-27966.3
-28611.3
-29182.3
-29671.6
-30071.6
-30374.5
-30572.8
-30658.8
-30625.3
-30465.6
-30173.2
-29742.5
-29168.4
-28446.4
-27572.9
-26544.8
-25359.8
-24015.9
-22511.5
-20845.2
-19015.2
-17019.4
-14854.7
-12518
-10006.6
-7322.3
-4477.85
-1509.64
-1245.44
-3634.19
-5827.13
-7813.75
-9617.7
-11270.5
-12801.2
-14233.9
-15587.5
-16876.5
-18111.8
-19301.3
-20450.8
-21563.6
-22641.9
-23685.9
-24694.8
-25666.5
-26597.9
-27484.9
-28322.7
-29105.5
-29827.1
-30480.7
-31058.9
-31554.2
-31958.8
-32265
-32464.8
-32550.6
-32515.1
-32351.4
-32052.9
-31613.7
-31028.5
-30292.5
-29401.9
-28353.1
-27143.1
-25769.2
-24228.7
-22518.3
-20633.7
-18568.7
-16314.5
-13858.3
-11183.8
-8273.22
-5117.53
-1742.51
-1656.77
-4669.4
-7266.89
-9506.97
-11472.2
-13231.5
-14835.8
-16321.8
-17715.8
-19036.5
-20297.8
-21509.1
-22677.4
-23806.8
-24899.9
-25957.4
-26978.6
-27961.6
-28903.4
-29800.1
-30646.7
-31437.5
-32166.3
-32826.2
-33409.8
-33909.6
-34317.6
-34626.1
-34827
-34912.7
-34875.7
-34708.8
-34405.6
-33959.9
-33366.1
-32619.5
-31715.7
-30650.9
-29421.6
-28024.2
-26455
-24709
-22779.3
-20655.4
-18321
-15751.1
-12907.4
-9735.03
-6166.11
-2158.32
-2581.59
-6627.85
-9745.55
-12255.3
-14370.3
-16219.5
-17882
-19408.1
-20831.5
-22174.9
-23454.3
-24680.8
-25861.9
-27002.7
-28105.8
-29172.3
-30201.8
-31192.4
-32141.3
-33044.3
-33896.7
-34692.9
-35426.5
-36090.6
-36677.8
-37180.5
-37590.9
-37900.8
-38102.5
-38188
-38149.9
-37981
-37674.5
-37224.4
-36624.9
-35871.1
-34958.4
-33882.7
-32640.1
-31226.5
-29637.3
-27866.1
-25903.8
-23735.9
-21339.1
-18674.5
-15675.9
-12228.3
-8133.41
-3086.11
-5305.56
-10889.2
-14523.7
-17241.5
-19455.2
-21358.2
-23053.4
-24601.5
-26040.5
-27395.7
-28684.5
-29918.7
-31106.4
-32252.9
-33361.1
-34432.2
-35465.8
-36460.2
-37412.5
-38318.8
-39174.2
-39973
-40709
-41375.1
-41964.2
-42468.4
-42879.8
-43190.5
-43392.5
-43478
-43439.3
-43269.4
-42961.3
-42508.9
-41906.6
-41149.1
-40231.9
-39150.6
-37901.3
-36479.4
-34879.9
-33095.7
-31116.2
-28924.5
-26492.8
-23771.9
-20672
-17013.7
-12399.2
-5811.55
2589.5
6650.73
9782.2
12304.7
14431.5
16291.8
17964.7
19500.7
20933.5
22285.9
23573.7
24808.3
25997.2
27145.4
28255.6
29328.9
30364.8
31361.6
32316.2
33224.7
34082.3
34883.2
35621.1
36289
36879.6
37385.2
37797.8
38109.4
38312
38397.7
38359.1
38188.8
37880.2
37427
36823.5
36064.7
35145.9
34063.2
32812.5
31389.8
29790.3
28007.8
26033.1
23851.7
21440.3
18760
15744.6
12279
8164.8
3096.87
1907.98
5275.97
8087.37
10454.6
12499.2
14311.5
15954
17469.3
18887
20227.8
21506.5
22733.4
23915.8
25058.2
26163.4
27232.1
28263.9
29256.8
30208
31113.3
31967.9
32766.1
33501.6
34167.4
34756.3
35260.3
35671.8
35982.6
36184.9
36270.7
36232.7
36063.5
35756.5
35305.4
34704.8
33949.7
33035.4
31958.2
30714.2
29299.7
27710.4
25940.7
23982.6
21823.8
19445
16815
13884.5
10576.8
6785.62
2413.87
1449.99
4177.82
6611.24
8760.53
10675.3
12406.1
13994.2
15471.2
16860.4
18179
19439.8
20651.8
21821.3
22952.6
24047.7
25107.3
26130.8
27116.2
28060.3
28959.2
29808
30600.9
31331.6
31993.2
32578.4
33079.5
33488.7
33798
33999.5
34085.5
34048.5
33881.4
33577.6
33131
32536.1
31788.2
30882.9
29816.5
28585.6
27187.2
25617.6
23872.6
21946.2
19829.5
17509.4
14965.8
12170.2
9086.08
5678.6
1952.91
1167.63
3429.74
5536.21
7467.95
9238.11
10870.4
12388.9
13814.7
15164.7
16452.2
17687.4
18877.8
20028.6
21143.3
22223.6
23269.8
24281
25255
26188.7
27078
27917.9
28702.8
29426.3
30081.6
30661.3
31158
31563.7
31870.7
32071.1
32157.3
32121.8
31957.8
31658.7
31218.6
30632.2
29894.9
29002.8
27952.3
26740.7
25365.5
23824.3
22114.2
20231.8
18172.1
15928.1
13490.3
10847.2
7988.94
4917.1
1666.05
984.16
2917.09
4763.94
6502.9
8132.48
9661.6
11102.9
12469.3
13772.2
15021.4
16224.5
17387.4
18514.2
19607.4
20668.3
21696.9
22691.8
23650.9
24570.7
25447.2
26275.3
27049.5
27763.4
28410.1
28982.6
29473.2
29874.3
30178.1
30376.9
30463.2
30429.8
30269.8
29976.8
29545.3
28970
28246.6
27371.5
26341.7
25155
23809.6
22304.1
20637.5
18808.6
16816
14658
12333.1
9841.13
7186.93
4386.41
1476.54
856.253
2549.55
4192.49
5767.24
7267.85
8696.09
10057.8
11360.3
12611
13816.4
14982.1
16112.4
17210.3
18277.5
19314.8
20321.7
21296.5
22237
23139.6
24000.1
24813.5
25574.3
26276.1
26912.1
27475.4
27958.4
28353.6
28653.3
28850.1
28936.4
28905.3
28750.2
28464.8
28043.6
27481.9
26775.5
25921.1
24916.4
23759.4
22449.4
20986.1
19369.7
17601.2
15682.2
13614.9
11403.2
9053.66
6577.86
3996.08
1340.99
761.106
2271.96
3751.74
5187.22
6571.93
7904.63
9187.42
10424.1
11619.2
12776.9
13901
14994.3
16059.1
17096.2
18105.8
19087.1
20038.2
20956.5
21838.5
22679.9
23475.8
24220.4
24907.6
25530.7
26082.8
26556.6
26944.5
27239.3
27433.4
27519.6
27491.2
27341.6
27064.9
26655.9
26110.1
25423.5
24593.3
23617.5
22494.8
21225.2
19809.2
18248.4
16545.5
14704
12729.2
10628.1
8410.67
6091.41
3690.77
1236.55
686.285
2051.72
3397.14
4713.01
5993.68
7236.9
8442.9
9613.4
10750.9
11857.9
12936.9
13989.8
15017.5
16020.7
16998.9
17951
18874.8
19767.6
20625.7
21444.9
22220.1
22945.9
23616
24224
24762.9
25225.7
25605.1
25893.8
26084.6
26170.5
26144.9
26001.6
25734.8
25339.6
24811.6
24147.5
23344.6
22401.3
21316.9
20091.9
18727.7
17226.9
15593.3
13832
11950
9956.09
7861.97
5682.74
3437.74
1150.75
624.615
1869.17
3100.42
4311.54
5497.99
6657.4
7789.14
8893.77
9972.51
11026.8
12058
13067.1
14054.5
15020.3
15963.6
16882.9
17776
18639.9
19470.9
20264.8
21016.5
21720.6
22371.1
22961.6
23485.4
23935.5
24304.9
24586.4
24773.3
24858.5
24835.9
24699.3
24443.5
24063.5
23555.4
22916.1
22143.3
21235.8
20193.2
19016.7
17708.1
16270.9
14709.7
13030.5
11241.2
9351.73
7374.14
5323.34
3217.18
1076.34
571.73
1712.04
2843.31
3960.67
5060.61
6141.01
7200.93
8240.3
9259.57
10259.4
11240.4
12203.1
13147.2
14072.4
14977.4
15860.7
16719.7
17551.4
18352.1
19117.6
19842.9
20522.6
21150.9
21721.6
22228.1
22663.7
23021.6
23294.9
23477
23561.2
23541.6
23412.3
23168.2
22804.8
22318.4
21706.2
20966.1
20097.3
19099.9
17975.2
16725.7
15355.3
13869
12273.6
10577.3
8790.34
6924.72
4994.7
3016.67
1008.92
524.84
1572.37
2613.68
3645.3
4664.59
5669.8
6659.94
7634.64
8593.9
9537.9
10466.8
11380.4
12278.4
13160
14023.7
14867.6
15689.3
16485.7
17253
17987
18682.9
19335.5
19939
20487.5
20974.7
21394
21738.8
22002.7
22179.2
22262
22245.2
22123.5
21892
21546.5
21083.5
20500.3
19795.5
18968.2
18018.9
16949.3
15762
14461.3
13052.5
11542.6
9939.95
8254.62
6498.33
4684.49
2828.14
945.652
482.095
1444.81
2403.23
3354.9
4297.88
5230.76
6152.67
7063.11
7961.85
8848.73
9723.57
10586
11435.2
12270.3
13089.7
13891.3
14672.5
15430.4
16161.2
16860.7
17524.3
18147
18723.3
19247.2
19712.9
20114
20444.3
20697.5
20867.4
20948.2
20934.3
20820.5
20602.3
20275.7
19837.6
19285.5
18618.1
17834.9
16936.6
15925
14803
13574.8
12246.1
10823.6
9315.78
7732.26
6084.23
4384.26
2646.13
884.663
442.223
1325.66
2206.15
3081.99
3951.75
4814.37
5669.11
6515.46
7353.07
8181.6
9000.67
9809.67
10607.7
11393.6
12165.8
12922
13659.8
14376.1
15067.4
15729.5
16358
16948.1
17494.4
17991.4
18433.5
18814.5
19128.6
19369.9
19532.4
19610.7
19599.4
19493.8
19289.5
18982.9
18571
18051.8
17424
16687.4
15842.8
14892
13838.1
12685.4
11439.3
10106.5
8695.14
7214.41
5674.85
4088.13
2466.92
824.663
404.328
1212.31
2018.3
2821.13
3619.81
4413.54
5201.73
5983.9
6759.67
7528.61
8290.2
9043.73
9788.23
10522.4
11244.5
11952.6
12644
13315.8
13964.5
14586.3
15176.9
15731.7
16245.6
16713.4
17129.6
17488.8
17785.1
18013.1
18167.3
18242.4
18233.5
18136.2
17946.4
17660.7
17276.5
16791.8
16205.7
15518.1
14729.7
13842.5
12859.6
11785.2
10624.4
9383.8
8071
6694.73
5264.8
3791.98
2287.89
764.761
367.768
1102.86
1836.66
2568.38
3297.35
4023
4744.87
5462.56
6175.66
6883.72
7586.17
8282.24
8970.9
9650.83
10320.4
10977.5
11619.6
12244.1
12847.5
13426.1
13976.1
14492.9
14971.9
15408.1
15796.5
16131.9
16408.9
16622.4
16767.2
16838.6
16831.9
16742.9
16568
16304.2
15948.8
15500.4
14957.9
14321.4
13591.7
12770.9
11861.8
10868.4
9795.81
8650.06
7438.31
6168.69
4850.26
3492.92
2107.24
704.338
332.079
995.965
1659.05
2320.83
2980.89
3638.83
4294.3
4946.98
5596.48
6242.37
6884.03
7520.7
8151.36
8774.7
9389.1
9992.6
10582.9
11157.2
11712.5
12245.4
12752
13228.3
13670
14072.5
14431
14740.8
14997
15194.6
15329.2
15396.1
15391.3
15310.8
15151.3
14910
14584.8
14174
13676.9
13093.7
12425.2
11673.3
10840.7
9931.29
8949.7
7901.61
6793.62
5633.21
4428.66
3188.97
1923.73
642.977
296.922
890.612
1483.85
2076.35
2667.85
3258.11
3846.87
4433.88
5018.78
5601.16
6180.45
6755.87
7326.46
7890.96
8447.84
8995.26
9531.04
10052.7
10557.3
11041.8
11502.6
11936.1
12338.2
12704.8
13031.5
13313.9
13547.7
13728.4
13851.7
13913.6
13910.3
13838.3
13694.6
13476.7
13182.5
12810.8
12361
11833
11227.9
10547.4
9794.09
8971.4
8083.69
7136.13
6134.75
5086.32
3998.33
2878.88
1736.58
580.408
262.053
786.089
1309.91
1833.39
2356.39
2878.75
3400.33
3920.89
4440.16
4957.74
5473.09
5985.51
6494.08
6997.63
7494.77
7983.79
8462.69
8929.2
9380.73
9814.4
10227.1
10615.4
10975.8
11304.5
11597.5
11851
12061
12223.5
12334.7
12391
12388.9
12325.5
12197.9
12003.9
11741.9
11410.6
11009.5
10538.8
9999.22
9392.49
8720.93
7987.67
7196.63
6352.47
5460.57
4526.99
3558.39
2561.97
1545.35
516.486
227.304
681.895
1136.44
1590.89
2045.2
2499.31
2953.1
3406.41
3859
4310.52
4760.49
5208.26
5653.01
6093.69
6529.02
6957.5
7377.33
7786.49
8182.67
8563.35
8925.73
9266.83
9583.49
9872.39
10130.1
10353.1
10538
10681.2
10779.5
10829.6
10828.5
10773.5
10662.4
10493
10264
9974.26
9623.42
9211.62
8739.62
8208.87
7621.47
6980.19
6288.49
5550.47
4770.86
3954.96
3108.59
2238.03
1349.91
451.16
192.559
577.695
962.879
1348.13
1733.46
2118.85
2504.22
2889.46
3274.37
3658.66
4041.9
4423.53
4802.82
5178.87
5550.55
5916.56
6275.35
6625.15
6963.99
7289.67
7599.79
7891.8
8162.95
8410.41
8631.24
8822.44
8981.02
9104.01
9188.54
9231.88
9231.48
9185.03
9090.52
8946.29
8751.07
8504.01
8204.76
7853.47
7450.82
6998.05
6497
5950.04
5360.15
4730.84
4066.15
3370.62
2649.19
1907.23
1150.36
384.462
157.751
473.288
788.922
1104.71
1420.68
1736.85
2053.18
2369.58
2685.9
3001.89
3317.2
3631.36
3943.76
4253.64
4560.06
4861.92
5157.93
5446.63
5726.36
5995.3
6251.47
6492.73
6716.81
6921.37
7103.97
7262.13
7393.37
7495.25
7565.38
7601.52
7601.55
7563.58
7485.96
7367.31
7206.6
7003.14
6756.63
6467.23
6135.51
5762.51
5349.74
4899.19
4413.31
3895.02
3347.65
2774.92
2180.93
1570.08
946.992
316.492
122.846
368.577
614.419
860.435
1106.67
1353.15
1599.86
1846.73
2093.65
2340.43