/*--------------------------------*- C++ -*----------------------------------*\
| =========                 |                                                 |
| \\      /  F ield         | OpenFOAM: The Open Source CFD Toolbox           |
|  \\    /   O peration     | Version:  5.x                                   |
|   \\  /    A nd           | Web:      www.OpenFOAM.org                      |
|    \\/     M anipulation  |                                                 |
\*---------------------------------------------------------------------------*/
FoamFile
{
    version     2.0;
    format      ascii;
    class       volScalarField;
    location    "1";
    object      gradTx;
}
// * * * * * * * * * * * * * * * * * * * * * * * * * * * * * * * * * * * * * //

dimensions      [0 -1 0 1 0 0 0];

internalField   nonuniform List<scalar> 
25000
(
5306.1
2584.32
1663.83
1258.94
1040.54
905.562
814.464
749.199
700.325
662.356
631.822
606.372
584.308
564.336
545.426
526.724
507.505
487.135
465.059
440.79
413.896
384.008
350.809
314.044
273.514
229.08
180.665
128.252
71.8854
11.6655
-52.2527
-119.667
-190.336
-263.994
-340.364
-419.185
-500.243
-583.414
-668.734
-756.497
-847.413
-942.878
-1045.44
-1159.74
-1294.43
-1466.86
-1715.97
-2144.34
-3080.69
-5810.47
10888.7
6633.85
4688.41
3672.5
3076.15
2692.69
2428.83
2237.83
2093.91
1981.66
1891.13
1815.5
1749.83
1690.29
1633.86
1577.99
1520.52
1459.58
1393.5
1320.83
1240.29
1150.76
1051.31
941.161
819.726
686.592
541.526
384.482
215.59
35.1566
-156.353
-358.328
-570.044
-790.695
-1019.45
-1255.5
-1498.2
-1747.15
-2002.41
-2264.79
-2536.29
-2820.87
-3125.7
-3463.67
-3858.17
-4353.88
-5042.26
-6128.53
-8121.52
-12400.3
14515.5
9748.27
7291.3
5883.71
5004.7
4417.17
4003.09
3698.75
3467.11
3285.16
3137.66
3013.96
2906.16
2808.18
2715.07
2622.71
2527.57
2426.54
2316.92
2196.27
2062.49
1913.73
1748.45
1565.36
1363.49
1142.15
900.975
639.879
359.088
59.1175
-259.249
-594.988
-946.879
-1313.56
-1693.62
-2085.7
-2488.65
-2901.71
-3324.85
-3759.21
-4207.75
-4676.34
-5175.66
-5724.45
-6355.86
-7130.1
-8162.21
-9686.84
-12222.9
-17030
17214.8
12244
9525.97
7877.79
6800.65
6056.27
5519.15
5117.77
4808.63
4563.64
4363.7
4195.09
4047.5
3912.8
3784.38
3656.63
3524.73
3384.43
3231.97
3064.04
2877.69
2670.38
2439.96
2184.67
1903.14
1594.44
1258.05
893.862
502.213
83.8296
-360.177
-828.358
-1318.98
-1830.11
-2359.73
-2905.86
-3466.77
-4041.27
-4629.07
-5231.32
-5851.47
-6496.57
-7179.37
-7921.98
-8762.46
-9767.46
-11058.3
-12869.9
-15698.3
-20724.8
19395.1
14330
11470.9
9674.27
8461.4
7600.63
6966.49
6485.05
6109.71
5809.44
5562.49
5352.91
5168.43
4999.26
4837.29
4675.59
4508.15
4329.65
4135.36
3921.07
3683.08
3418.17
3123.59
2797.11
2437.01
2042.1
1611.74
1145.81
644.756
109.527
-458.425
-1057.21
-1684.57
-2337.97
-3014.74
-3712.22
-4428.06
-5160.46
-5908.67
-6673.59
-7458.67
-8271.34
-9125.2
-10043.6
-11066.3
-12260.8
-13747.4
-15753.2
-18753.6
-23890.1
21245.9
16131.2
13190.9
11300.7
9995.03
9049.22
8340.34
7794.51
7364.08
7016.48
6728.35
6482.12
6264.05
6062.98
5869.52
5675.59
5474.09
5258.7
5023.79
4764.33
4475.86
4154.52
3797.02
3400.65
2963.37
2483.75
1961.01
1395.06
786.456
136.385
-553.352
-1280.41
-2041.98
-2834.9
-3655.8
-4501.31
-5368.33
-6254.36
-7157.98
-8079.56
-9022.13
-9992.87
-11005.2
-12082.5
-13263.8
-14615.5
-16254
-18398.7
-21510.9
-26712.3
22866.4
17723.3
14733.5
12782.5
11412.9
10405.3
9639.57
9042.87
8567.46
8180.14
7856.57
7578.12
7329.93
7099.72
6877.04
6652.79
6418.89
6168.13
5894.02
5590.77
5253.21
4876.87
4457.92
3993.25
3480.46
2917.92
2304.76
1640.89
926.988
164.506
-644.399
-1496.91
-2389.65
-3318.8
-4280.26
-5269.89
-6283.75
-7318.54
-8372.02
-9443.75
-10536
-11655.3
-12814.3
-14035.2
-15355.9
-16840.3
-18600.9
-20850.7
-24042.5
-29287.4
24313.8
19153.1
16131.8
14140.3
12726.2
11673.7
10865.1
10228.6
9717.06
9296.92
8943.34
8636.98
8362.11
8105.58
7856.05
7603.5
7339.02
7054.56
6742.85
6397.36
6012.3
5582.59
5103.93
4572.78
3986.46
3343.13
2641.83
1882.5
1065.96
193.914
-731.096
-1705.77
-2726.15
-3787.74
-4885.67
-6014.98
-7170.85
-8349.05
-9546.4
-10761.5
-11995.7
-13254.3
-14549
-15900.5
-17344.9
-18943.5
-20805.5
-23139.3
-26392
-31669.3
25623.2
20451.3
17409.1
15390.1
13944.6
12859.4
12018.6
11351.4
10811.1
10364.2
9985.51
9655.24
9357.02
9076.96
8802.95
8524.21
8231.05
7914.67
7567.08
7181.09
6750.29
6269.07
5732.65
5137.12
4479.52
3757.83
2971
2119.03
1202.89
224.551
-813.065
-1906.17
-3050.19
-4239.94
-5469.78
-6733.86
-8026.45
-9342.33
-10677.3
-12028.9
-13397.2
-14786.4
-16206.8
-17677.6
-19233
-20931.9
-22880.8
-25284.6
-28586.7
-33889.7
26817.5
21638
18581.7
16543.6
15075.9
13967
13102
12411.3
11848.3
11379.8
10980.4
10629.9
10311.4
10010.5
9714.35
9411.53
9091.64
8745.2
8363.57
7938.95
7464.35
6933.65
6341.64
5684.08
4957.73
4160.4
3291
2349.57
1337.25
256.28
-890.022
-2097.37
-3360.58
-4673.77
-6030.49
-7424.01
-8847.65
-10295.2
-11761.2
-13242.2
-14737.1
-16248.7
-17785.8
-19366.1
-21022
-22810.4
-24835.3
-27299.3
-30643.4
-35967.9
27911.7
22727.1
19661.2
17609.8
16126.2
14999.9
14117
13408.4
12827.8
12342.1
11925.7
11558.3
11222.4
10903.1
10587
10262.2
9917.54
9542.96
9129.23
8667.95
8151.63
7573.67
6928.47
6211.45
5419.13
4549.18
3600.49
2573.13
1468.42
288.886
-961.766
-2278.74
-3656.27
-5087.73
-6565.89
-8083.13
-9631.78
-11204.6
-12795.1
-14398.4
-16012.4
-17638.5
-19284.1
-20965.3
-22712.8
-24581.9
-26674.5
-29191.6
-32572.2
-37915.4
28916.3
23728.2
20655.5
18594.8
17100
15961.2
15065.1
14342.9
13748.7
13249.4
12819.4
12437.8
12087
11751.7
11417.9
11073.1
10705.6
10304.8
9860.98
9365.14
8809.31
8186.48
7490.65
6716.97
5861.74
4922.5
3898.09
2788.67
1595.73
322.083
-1028.18
-2449.76
-3936.29
-5480.44
-7074.19
-8709.04
-10376.3
-12067.8
-13775.8
-15494.5
-17220.2
-18953.2
-20699.5
-22473.9
-24305.4
-26247.8
-28401.6
-30966.1
-34379.1
-39738.8
29838.4
24647.9
21570.6
19503.3
18000.6
16852.8
15947
15214.8
14610.3
14100.4
13659.4
13266.2
12902.9
12553.6
12204
11841.1
11452.7
11027.7
10555.8
10027.6
9434.58
8769.41
8025.73
7198.42
6283.56
5278.61
4182.38
2995.11
1718.46
355.528
-1089.21
-2609.97
-4199.78
-5850.64
-7553.74
-9299.72
-11079
-12882.2
-14700.7
-16527.4
-18357.6
-20190.3
-22030
-23890.3
-25798.9
-27808.3
-30017.6
-32624.9
-36067.1
-41441.6
30682.8
25490.7
22410.2
20338.5
18830.2
17676.1
16763.5
16023.9
15411.7
14893.6
14443.9
14041.2
13667.3
13306
12942.5
12563.4
12156
11708.7
11210.8
10652.4
10024.7
9319.84
8531.26
7653.53
6682.6
5615.8
4451.94
3191.34
1835.84
388.826
-1144.86
-2758.97
-4445.95
-6197.15
-8002.98
-9853.25
-11737.5
-13645.3
-15567.1
-17494.6
-19421.9
-21346.9
-23273
-25212.5
-27191.9
-29262.5
-31522.3
-34168.5
-37637.1
-43024.9
31453
26259.8
23177.2
21102.5
19590.5
18432
17514.5
16769.7
16151.8
15627.6
15171.1
14760.7
14378
14006.3
13630.6
13237
12812.4
12344.8
11823
11236.8
10576.9
9835.21
9004.82
8080.11
7056.87
5932.34
4705.33
3376.24
1947.1
421.547
-1195.21
-2896.46
-4674.11
-6518.87
-8420.44
-10367.8
-12349.7
-14354.7
-16372.3
-18393.1
-20410.3
-22420.5
-24426
-26438.2
-28482.3
-30608.7
-32914.5
-35595.9
-39088.5
-44488.4
32151.1
26957.2
23873.3
21796.7
20282.2
19120.9
18200.1
17451.7
16829.8
16301
15839.1
15422.6
15032.5
14652.1
14265.8
13859.3
13419.3
12933.3
12389.8
11778
11088.6
10313
9444.07
8476
7404.42
6226.52
4941.11
3548.69
2051.43
453.237
-1240.34
-3022.15
-4883.61
-6814.8
-8804.76
-10841.7
-12913.6
-15008.1
-17113.8
-19220.3
-21319.9
-23408.1
-25486.3
-27564.7
-29667.7
-31844.8
-34192.3
-36905.6
-40419.8
-45830.6
32778.6
27584.3
24499.6
22421.8
20905.8
19742.7
18819.9
18069
17444.3
16912.2
16446.3
16024.9
15628.8
15240.9
14845.4
14427.7
13974
13471.5
12908.3
12273.5
11557.3
10750.8
9846.74
8839.09
7723.38
6496.71
5157.93
3707.58
2148.04
483.43
-1280.37
-3135.83
-5073.86
-7083.99
-9154.65
-11273.4
-13427.3
-15603.3
-17789.2
-19973.7
-22148
-24306.9
-26450.9
-28589.2
-30745.4
-32968.2
-35353.2
-38095.2
-41628.8
-47049.3
33336.3
28141.7
25056.6
22978.2
21461.4
20297.3
19373.3
18620.9
17994.3
17459.8
16991
16565.8
16164.7
15770.6
15367.2
14939.7
14473.9
13956.9
13376.3
12720.8
11980.5
11146.3
10210.7
9167.43
8011.95
6741.34
5354.43
3851.87
2236.17
511.664
-1315.46
-3237.3
-5244.33
-7325.6
-9468.92
-11661.2
-13888.9
-16138.3
-18396.1
-20650.6
-22892
-25114.3
-27317.1
-29508.9
-31712.6
-33976.2
-36394.5
-39162.1
-42712.8
-48142.1
33824.5
28629.9
25544.6
23466
21948.9
20784.3
19859.6
19106.4
18478.6
17942.6
17471.6
17043.3
16638.4
16239
15829
15393.1
14916.9
14387.1
13791.2
13117.7
12356.2
11497.5
10533.9
9459.15
8268.48
6958.94
5529.39
3980.56
2315.07
537.494
-1345.74
-3326.4
-5394.57
-7538.82
-9746.48
-12003.9
-14296.9
-16611
-18932.5
-21248.7
-23549.3
-25827.4
-28082
-30320.9
-32566.4
-34865.8
-37313.4
-40103.4
-43669.3
-49106.2
34243.4
29048.8
25963.6
23884.9
22367.8
21203.1
20278.2
19524.6
18896.2
18359.1
17886.5
17456
17047.9
16644.3
16228.8
15785.8
15300.8
14760.1
14151.1
13461.9
12682.1
11802.3
10814.6
9712.57
8491.41
7148.15
5681.65
4092.71
2384.08
560.499
-1371.37
-3403.01
-5524.14
-7722.96
-9986.33
-12300.1
-14649.6
-17019.8
-19396.3
-21765.9
-24117.5
-26443.9
-28743.2
-31022.7
-33304.2
-35634.3
-38107.2
-40916.4
-44495.3
-49938.8
34593
29398.4
26313.3
24234.7
22717.7
21553.2
20628.3
19874.6
19245.9
18708.2
18234.5
17802.3
17391.8
16984.8
16564.8
16116
15623.6
15073.9
14453.9
13751.8
12956.7
12059.2
11051.2
9926.19
8679.4
7307.78
5810.2
4187.52
2442.59
580.299
-1392.49
-3467
-5632.68
-7877.39
-10187.6
-12548.8
-14945.7
-17363
-19785.7
-22200.1
-24594.6
-26961.3
-29298.1
-31611.7
-33923.2
-36279.2
-38773.1
-41598.4
-45188.2
-50637.2
34873
29678.5
26593.5
24515.1
22998.4
21834
20909.4
20155.7
19526.9
18988.8
18514.4
18081
17668.6
17259
16835.5
16382.1
15883.9
15327
14698.3
13985.6
13178.2
12266.5
11242.1
10098.7
8831.25
7436.77
5914.14
4264.26
2490.06
596.561
-1409.22
-3518.3
-5719.9
-8001.59
-10349.6
-12748.9
-15184.1
-17639.3
-20099.2
-22549.6
-24978.6
-27377.9
-29744.8
-32085.6
-34421.4
-36798
-39308.9
-42147.2
-45745.7
-51199
35083.2
29888.8
26803.9
24725.8
23209.2
22045.1
21120.7
20367.2
19738.4
19200
18725.1
18290.9
17877.2
17465.7
17039.6
16582.8
16080.3
15518
14882.7
14162.2
13345.5
12423
11386.4
10229
8946.02
7534.29
5992.75
4322.34
2526.06
609.007
-1421.67
-3556.84
-5785.53
-8095.13
-10471.6
-12899.7
-15363.7
-17847.6
-20335.5
-22813.1
-25268.1
-27691.8
-30081.3
-32442.8
-34796.8
-37189
-39712.6
-42560.6
-46165.7
-51622.3
35223.5
30029.1
26944.4
24866.4
23350
22186.1
21261.8
20508.5
19879.7
19341.3
18866.1
18431.3
18016.8
17604.1
17176.2
16717.2
16211.8
15645.9
15006.2
14280.5
13457.6
12527.9
11483.1
10316.4
9022.94
7599.67
6045.48
4361.32
2550.25
617.424
-1429.92
-3582.56
-5829.4
-8157.68
-10553.2
-13000.6
-15483.9
-17986.9
-20493.6
-22989.3
-25461.7
-27901.8
-30306.5
-32681.7
-35047.9
-37450.5
-39982.7
-42837.1
-46446.6
-51905.4
35293.7
30099.4
27014.6
24936.8
23420.5
22256.7
21332.5
20579.2
19950.4
19412
18936.7
18501.7
18086.7
17673.4
17244.7
16784.6
16277.8
15710.1
15068.2
14339.8
13513.8
12580.5
11531.5
10360.2
9061.53
7632.47
6071.93
4380.88
2562.4
621.666
-1434.03
-3595.43
-5851.37
-8189.01
-10594.1
-13051.2
-15544.2
-18056.7
-20572.8
-23077.6
-25558.7
-28007
-30419.3
-32801.4
-35173.7
-37581.5
-40117.9
-42975.7
-46587.3
-52047.3
35293.7
30099.4
27014.7
24936.8
23420.5
22256.7
21332.5
20579.2
19950.5
19412
18936.7
18501.7
18086.7
17673.4
17244.7
16784.6
16277.8
15710.1
15068.2
14339.8
13513.8
12580.5
11531.5
10360.2
9061.53
7632.47
6071.93
4380.88
2562.39
621.66
-1434.04
-3595.44
-5851.37
-8189.02
-10594.1
-13051.2
-15544.2
-18056.7
-20572.8
-23077.7
-25558.7
-28007
-30419.3
-32801.4
-35173.7
-37581.5
-40117.9
-42975.7
-46587.3
-52047.3
35223.5
30029.1
26944.4
24866.4
23350
22186.1
21261.8
20508.5
19879.7
19341.3
18866.1
18431.3
18016.8
17604.1
17176.3
16717.2
16211.8
15645.9
15006.2
14280.5
13457.6
12527.9
11483.1
10316.4
9022.94
7599.66
6045.47
4361.3
2550.23
617.406
-1429.94
-3582.58
-5829.42
-8157.7
-10553.2
-13000.6
-15484
-17986.9
-20493.6
-22989.3
-25461.7
-27901.8
-30306.5
-32681.7
-35047.9
-37450.5
-39982.6
-42837.1
-46446.6
-51905.4
35083.2
29888.8
26803.9
24725.8
23209.2
22045.2
21120.7
20367.2
19738.4
19200.1
18725.2
18290.9
17877.2
17465.8
17039.6
16582.8
16080.3
15518
14882.7
14162.2
13345.5
12423
11386.4
10229
8946.01
7534.28
5992.74
4322.32
2526.03
608.978
-1421.7
-3556.87
-5785.57
-8095.17
-10471.6
-12899.8
-15363.8
-17847.6
-20335.5
-22813.1
-25268.1
-27691.8
-30081.4
-32442.8
-34796.8
-37189
-39712.6
-42560.6
-46165.7
-51622.3
34873
29678.5
26593.5
24515.2
22998.4
21834
20909.4
20155.8
19526.9
18988.8
18514.4
18081
17668.6
17259
16835.5
16382.1
15883.9
15327
14698.3
13985.6
13178.2
12266.5
11242.1
10098.7
8831.24
7436.76
5914.12
4264.23
2490.03
596.521
-1409.26
-3518.35
-5719.95
-8001.64
-10349.6
-12749
-15184.1
-17639.4
-20099.3
-22549.7
-24978.7
-27377.9
-29744.8
-32085.6
-34421.4
-36798
-39308.9
-42147.1
-45745.7
-51199
34593
29398.4
26313.3
24234.8
22717.8
21553.2
20628.4
19874.7
19245.9
18708.2
18234.5
17802.3
17391.8
16984.8
16564.8
16116
15623.7
15074
14454
13751.8
12956.7
12059.2
11051.2
9926.18
8679.38
7307.75
5810.17
4187.48
2442.55
580.25
-1392.54
-3467.06
-5632.75
-7877.45
-10187.7
-12548.9
-14945.8
-17363.1
-19785.8
-22200.1
-24594.6
-26961.4
-29298.1
-31611.7
-33923.2
-36279.1
-38773.1
-41598.4
-45188.2
-50637.1
34243.5
29048.8
25963.6
23884.9
22367.8
21203.1
20278.2
19524.6
18896.2
18359.1
17886.5
17456
17047.9
16644.4
16228.8
15785.8
15300.8
14760.1
14151.1
13461.9
12682.1
11802.4
10814.6
9712.56
8491.39
7148.12
5681.62
4092.67
2384.03
560.44
-1371.44
-3403.08
-5524.21
-7723.03
-9986.41
-12300.2
-14649.7
-17019.9
-19396.4
-21766
-24117.6
-26443.9
-28743.2
-31022.7
-33304.1
-35634.3
-38107.1
-40916.3
-44495.2
-49938.7
33824.5
28629.9
25544.7
23466
21948.9
20784.3
19859.6
19106.4
18478.7
17942.6
17471.6
17043.4
16638.4
16239.1
15829
15393.1
14916.9
14387.2
13791.2
13117.7
12356.2
11497.5
10533.9
9459.14
8268.45
6958.91
5529.35
3980.51
2315.01
537.426
-1345.82
-3326.48
-5394.65
-7538.91
-9746.57
-12004
-14297
-16611.1
-18932.6
-21248.8
-23549.3
-25827.4
-28082
-30320.9
-32566.4
-34865.7
-37313.4
-40103.3
-43669.2
-49106.1
33336.3
28141.8
25056.7
22978.3
21461.5
20297.4
19373.3
18620.9
17994.3
17459.9
16991.1
16565.8
16164.8
15770.6
15367.3
14939.7
14474
13956.9
13376.3
12720.9
11980.5
11146.3
10210.7
9167.42
8011.93
6741.31
5354.39
3851.82
2236.1
511.589
-1315.54
-3237.39
-5244.43
-7325.69
-9469.02
-11661.3
-13889
-16138.4
-18396.2
-20650.7
-22892
-25114.3
-27317.1
-29508.9
-31712.6
-33976.1
-36394.4
-39162
-42712.8
-48142
32778.7
27584.3
24499.6
22421.9
20905.9
19742.8
18819.9
18069.1
17444.3
16912.2
16446.4
16025
15628.9
15241
14845.5
14427.7
13974
13471.5
12908.4
12273.6
11557.3
10750.8
9846.74
8839.08
7723.35
6496.68
5157.88
3707.52
2147.97
483.348
-1280.47
-3135.93
-5073.96
-7084.1
-9154.76
-11273.5
-13427.4
-15603.4
-17789.2
-19973.7
-22148.1
-24307
-26450.9
-28589.2
-30745.4
-32968.2
-35353.1
-38095.1
-41628.6
-47049.2
32151.2
26957.2
23873.4
21796.7
20282.3
19120.9
18200.2
17451.7
16829.8
16301
15839.2
15422.7
15032.6
14652.1
14265.8
13859.4
13419.4
12933.4
12389.8
11778.1
11088.6
10313
9444.07
8475.98
7404.39
6226.48
4941.06
3548.62
2051.35
453.15
-1240.43
-3022.26
-4883.72
-6814.91
-8804.88
-10841.9
-12913.7
-15008.2
-17113.9
-19220.4
-21319.9
-23408.1
-25486.3
-27564.7
-29667.7
-31844.8
-34192.2
-36905.5
-40419.7
-45830.5
31453
26259.8
23177.3
21102.6
19590.5
18432.1
17514.6
16769.8
16151.9
15627.7
15171.1
14760.8
14378
14006.4
13630.7
13237.1
12812.5
12344.9
11823.1
11236.8
10576.9
9835.22
9004.82
8080.1
7056.84
5932.3
4705.27
3376.17
1947.02
421.457
-1195.31
-2896.57
-4674.23
-6518.99
-8420.57
-10367.9
-12349.8
-14354.8
-16372.4
-18393.2
-20410.3
-22420.5
-24426.1
-26438.2
-28482.3
-30608.7
-32914.4
-35595.8
-39088.4
-44488.3
30682.9
25490.7
22410.3
20338.6
18830.3
17676.2
16763.5
16023.9
15411.8
14893.7
14444
14041.3
13667.4
13306
12942.6
12563.4
12156
11708.8
11210.8
10652.4
10024.7
9319.86
8531.26
7653.52
6682.58
5615.76
4451.89
3191.27
1835.76
388.733
-1144.97
-2759.08
-4446.07
-6197.27
-8003.11
-9853.37
-11737.6
-13645.4
-15567.2
-17494.7
-19422
-21347
-23273.1
-25212.5
-27191.9
-29262.4
-31522.2
-34168.4
-37637
-43024.8
29838.4
24647.9
21570.6
19503.4
18000.6
16852.8
15947.1
15214.9
14610.4
14100.5
13659.5
13266.3
12902.9
12553.6
12204.1
11841.2
11452.8
11027.8
10555.9
10027.6
9434.61
8769.42
8025.74
7198.41
6283.54
5278.57
4182.33
2995.04
1718.38
355.434
-1089.31
-2610.08
-4199.9
-5850.77
-7553.87
-9299.84
-11079.1
-12882.3
-14700.8
-16527.5
-18357.7
-20190.3
-22030
-23890.3
-25798.9
-27808.2
-30017.5
-32624.8
-36067
-41441.5
28916.3
23728.2
20655.6
18594.9
17100
15961.2
15065.1
14343
13748.8
13249.5
12819.4
12437.9
12087.1
11751.8
11418
11073.1
10705.7
10304.9
9861.03
9365.18
8809.34
8186.49
7490.66
6716.96
5861.71
4922.46
3898.03
2788.6
1595.65
321.989
-1028.28
-2449.88
-3936.41
-5480.57
-7074.33
-8709.17
-10376.5
-12067.9
-13775.9
-15494.6
-17220.3
-18953.3
-20699.5
-22473.9
-24305.3
-26247.7
-28401.5
-30966
-34379
-39738.7
27911.8
22727.2
19661.2
17609.8
16126.2
15000
14117.1
13408.4
12827.9
12342.1
11925.8
11558.3
11222.4
10903.1
10587.1
10262.3
9917.61
9543.02
9129.28
8667.99
8151.66
7573.69
6928.47
6211.44
5419.1
4549.15
3600.44
2573.06
1468.34
288.793
-961.869
-2278.86
-3656.39
-5087.86
-6566.02
-8083.26
-9631.91
-11204.7
-12795.2
-14398.5
-16012.5
-17638.6
-19284.1
-20965.3
-22712.8
-24581.8
-26674.5
-29191.5
-32572.1
-37915.2
26817.5
21638
18581.8
16543.7
15076
13967
13102.1
12411.3
11848.4
11379.9
10980.5
10630
10311.5
10010.6
9714.43
9411.6
9091.7
8745.26
8363.62
7938.99
7464.38
6933.67
6341.65
5684.08
4957.71
4160.36
3290.95
2349.51
1337.17
256.191
-890.122
-2097.48
-3360.7
-4673.89
-6030.62
-7424.14
-8847.78
-10295.3
-11761.3
-13242.3
-14737.2
-16248.8
-17785.8
-19366.2
-21022
-22810.4
-24835.2
-27299.2
-30643.2
-35967.8
25623.3
20451.3
17409.1
15390.1
13944.6
12859.5
12018.6
11351.5
10811.1
10364.2
9985.58
9655.31
9357.09
9077.03
8803.02
8524.28
8231.11
7914.72
7567.13
7181.13
6750.32
6269.09
5732.65
5137.12
4479.51
3757.8
2970.96
2118.97
1202.82
224.467
-813.161
-1906.27
-3050.3
-4240.06
-5469.9
-6733.98
-8026.57
-9342.44
-10677.4
-12028.9
-13397.3
-14786.5
-16206.8
-17677.6
-19232.9
-20931.9
-22880.7
-25284.5
-28586.6
-33889.6
24313.8
19153.2
16131.8
14140.3
12726.2
11673.8
10865.1
10228.7
9717.12
9296.98
8943.41
8637.04
8362.18
8105.65
7856.11
7603.57
7339.08
7054.61
6742.89
6397.4
6012.33
5582.61
5103.94
4572.78
3986.45
3343.11
2641.79
1882.44
1065.89
193.835
-731.185
-1705.87
-2726.26
-3787.85
-4885.79
-6015.1
-7170.96
-8349.16
-9546.5
-10761.6
-11995.8
-13254.4
-14549
-15900.5
-17344.9
-18943.5
-20805.5
-23139.3
-26391.9
-31669.2
22866.4
17723.3
14733.5
12782.5
11412.9
10405.3
9639.62
9042.92
8567.51
8180.19
7856.63
7578.19
7330
7099.79
6877.11
6652.85
6418.95
6168.18
5894.07
5590.81
5253.24
4876.89
4457.93
3993.25
3480.45
2917.9
2304.72
1640.84
926.928
164.435
-644.48
-1497
-2389.75
-3318.9
-4280.37
-5270
-6283.86
-7318.64
-8372.11
-9443.83
-10536.1
-11655.4
-12814.3
-14035.3
-15355.9
-16840.3
-18600.8
-20850.6
-24042.4
-29287.3
21245.9
16131.3
13190.9
11300.7
9995.06
9049.26
8340.38
7794.56
7364.13
7016.53
6728.4
6482.17
6264.11
6063.04
5869.58
5675.64
5474.14
5258.75
5023.83
4764.36
4475.89
4154.54
3797.03
3400.65
2963.36
2483.73
1960.98
1395.02
786.404
136.323
-553.424
-1280.49
-2042.07
-2834.99
-3655.89
-4501.41
-5368.43
-6254.45
-7158.07
-8079.63
-9022.2
-9992.92
-11005.3
-12082.5
-13263.8
-14615.5
-16254
-18398.6
-21510.9
-26712.2
19395.2
14330
11470.9
9674.3
8461.43
7600.66
6966.53
6485.09
6109.75
5809.48
5562.54
5352.96
5168.48
4999.31
4837.34
4675.64
4508.19
4329.69
4135.39
3921.1
3683.11
3418.19
3123.6
2797.11
2437
2042.09
1611.71
1145.78
644.712
109.474
-458.486
-1057.28
-1684.65
-2338.05
-3014.82
-3712.31
-4428.14
-5160.54
-5908.75
-6673.65
-7458.72
-8271.39
-9125.23
-10043.6
-11066.2
-12260.8
-13747.3
-15753.1
-18753.6
-23890
17214.8
12244
9525.98
7877.81
6800.67
6056.3
5519.18
5117.8
4808.66
4563.68
4363.74
4195.13
4047.54
3912.84
3784.42
3656.67
3524.76
3384.46
3232
3064.06
2877.71
2670.4
2439.97
2184.67
1903.14
1594.43
1258.03
893.834
502.177
83.7873
-360.226
-828.412
-1319.04
-1830.18
-2359.8
-2905.92
-3466.84
-4041.34
-4629.13
-5231.37
-5851.52
-6496.6
-7179.39
-7921.99
-8762.46
-9767.44
-11058.3
-12869.8
-15698.2
-20724.7
14515.5
9748.28
7291.31
5883.72
5004.72
4417.19
4003.11
3698.77
3467.14
3285.19
3137.69
3013.98
2906.19
2808.21
2715.1
2622.74
2527.59
2426.57
2316.94
2196.29
2062.5
1913.74
1748.45
1565.36
1363.48
1142.14
900.961
639.859
359.063
59.0867
-259.285
-595.028
-946.923
-1313.61
-1693.67
-2085.75
-2488.69
-2901.75
-3324.9
-3759.25
-4207.78
-4676.37
-5175.67
-5724.46
-6355.85
-7130.09
-8162.18
-9686.8
-12222.9
-17030
10888.7
6633.85
4688.41
3672.5
3076.16
2692.7
2428.84
2237.84
2093.93
1981.67
1891.14
1815.52
1749.85
1690.31
1633.87
1578
1520.54
1459.59
1393.51
1320.85
1240.3
1150.77
1051.31
941.162
819.724
686.587
541.518
384.47
215.575
35.1378
-156.375
-358.353
-570.071
-790.724
-1019.48
-1255.53
-1498.23
-1747.18
-2002.43
-2264.81
-2536.31
-2820.88
-3125.72
-3463.67
-3858.17
-4353.87
-5042.25
-6128.51
-8121.49
-12400.3
5306.1
2584.32
1663.83
1258.94
1040.54
905.565
814.468
749.203
700.33
662.361
631.828
606.378
584.314
564.342
545.432
526.73
507.51
487.14
465.064
440.794
413.9
384.01
350.811
314.045
273.513
229.078
180.662
128.248
71.8802
11.6592
-52.26
-119.675
-190.345
-264.003
-340.374
-419.196
-500.253
-583.424
-668.743
-756.505
-847.42
-942.884
-1045.45
-1159.75
-1294.43
-1466.86
-1715.97
-2144.33
-3080.68
-5810.46
2590.05
1910.72
1457.08
1181.16
1006.17
888.636
805.628
744.536
697.987
661.385
631.688
606.762
585.028
565.265
546.484
527.855
508.669
488.305
466.212
441.907
414.963
385.01
351.734
314.879
274.247
229.701
181.164
128.62
72.1127
11.7463
-52.3226
-119.888
-190.706
-264.502
-340.992
-419.903
-501
-584.132
-669.291
-756.698
-846.941
-941.193
-1041.58
-1151.84
-1278.56
-1433.64
-1639.43
-1938.88
-2408.43
-3095.78
6650.18
5281.99
4196.89
3468.15
2980.92
2644.52
2403.34
2224.29
2087.12
1978.86
1890.79
1816.71
1752.01
1693.09
1637.03
1581.38
1524.01
1463.08
1396.96
1324.18
1243.49
1153.77
1054.08
943.662
821.925
688.454
543.022
385.582
216.271
35.3979
-156.563
-358.994
-571.154
-792.221
-1021.33
-1257.66
-1500.48
-1749.32
-2004.11
-2265.45
-2534.99
-2816.03
-3114.56
-3440.97
-3813.14
-4262.09
-4841.61
-5640.89
-6773.67
-8165.89
9774
8090.11
6635.72
5592.95
4863.05
4343.48
3963.45
3677.53
3456.47
3280.86
3137.29
3016.07
2909.85
2812.87
2720.37
2628.37
2533.39
2432.38
2322.67
2201.84
2067.81
1918.73
1753.05
1569.52
1367.14
1145.25
903.462
641.708
360.22
59.5182
-259.601
-596.097
-948.73
-1316.11
-1696.78
-2089.32
-2492.48
-2905.38
-3327.8
-3760.52
-4205.93
-4668.95
-5158.42
-5689.45
-6287.39
-6994.17
-7877.6
-9037.72
-10571.4
-12295.3
12278
10443.2
8779.59
7532.18
6626.44
5963.45
5468.46
5090.44
4794.96
4558.29
4363.55
4198.25
4052.78
3919.43
3791.83
3664.55
3532.86
3392.59
3240
3071.82
2885.11
2677.35
2446.4
2190.48
1908.25
1598.77
1261.52
896.416
503.792
84.3876
-360.67
-829.911
-1321.57
-1833.68
-2364.16
-2910.94
-3472.2
-4046.54
-4633.4
-5233.51
-5849.59
-6487.45
-7157.6
-7877.76
-8676.93
-9601.25
-10721.3
-12132.5
-13906.8
-15797.4
14371.4
12458.7
10673.9
9294.85
8265.49
7494.3
6907.75
6453.26
6093.95
5803.56
5562.87
5357.29
5175.39
5007.87
4846.91
4685.78
4518.6
4340.11
4145.65
3931.04
3692.59
3427.1
3131.82
2804.55
2443.55
2047.64
1616.19
1149.08
646.777
110.24
-459.061
-1059.21
-1687.91
-2342.57
-3020.45
-3718.81
-4435.13
-5167.4
-5914.55
-6676.95
-7457.24
-8261.41
-9100.52
-9993.18
-10969.3
-12075.1
-13378.9
-14967.8
-16894.3
-18878.4
16179.2
14223
12365.4
10900.7
9785.14
8933.87
8276.13
7759.76
7347.11
7010.6
6729.54
6487.89
6272.79
6073.61
5881.32
5688.04
5486.83
5271.44
5036.32
4776.46
4487.43
4165.38
3807.03
3409.7
2971.32
2490.48
1966.42
1399.04
788.914
137.25
-554.131
-1282.85
-2046.06
-2840.52
-3662.81
-4509.42
-5377.09
-6263.06
-7165.58
-8084.4
-9021.66
-9982.98
-10979.1
-12028.4
-13159.8
-14418.1
-15867.4
-17587.2
-19617.2
-21660.3
17777.2
15794.9
13891.6
12370.2
11194.3
10284.3
9571.96
9006.43
8550.05
8174.72
7858.87
7585.45
7340.52
7112.41
6891.02
6667.49
6433.9
6183.13
5908.76
5605.02
5266.8
4889.63
4469.68
4003.87
3489.8
2925.83
2311.11
1645.56
929.874
165.518
-645.32
-1499.79
-2394.46
-3325.45
-4288.57
-5279.54
-6294.24
-7329.1
-8381.48
-9450.33
-10537
-11646.2
-12788
-13979.5
-15248.2
-16636.4
-18204.3
-20025.4
-22131.2
-24215.5
19212.3
17213.7
15280.7
13720.9
12502.5
11549.4
10795.6
10191.5
9699.86
9292.37
8946.99
8645.98
8374.63
8120.36
7872.21
7620.43
7356.27
7071.77
6759.74
6413.7
6027.87
5597.21
5117.41
4584.95
3997.16
3352.19
2649.11
1887.85
1069.26
195.07
-732.159
-1709.09
-2731.7
-3795.41
-4895.28
-6026.18
-7183.1
-8361.53
-9557.86
-10770.1
-11998.4
-13246.7
-14523.5
-15844.6
-17235.8
-18736.6
-20404.1
-22307.1
-24472.1
-26587.7
20515.2
18505.8
16552.9
14966.8
13718.2
12733.5
11948.5
11314.4
10794.6
10360.8
9990.69
9666.04
9371.5
9093.82
8821.27
8543.34
8250.49
7934.04
7586.08
7199.46
6767.79
6285.49
5747.79
5150.8
4491.54
3768.01
2979.18
2125.05
1206.6
225.848
-814.269
-1909.91
-3056.45
-4248.62
-5480.67
-6746.6
-8040.48
-9356.78
-10690.8
-12039.5
-13402
-14780.7
-16182.9
-17622.8
-19124.2
-20724.4
-22477.6
-24449.6
-26663.2
-28804
21706.1
19689.5
17723
16118.5
14848.4
13840.5
13032
12374.9
11832.9
11377.8
10987.3
10642.6
10327.9
10029.4
9734.81
9432.81
9113.22
8766.68
8384.62
7959.29
7483.73
6951.83
6358.41
5699.22
4971.03
4171.67
3300.05
2356.23
1341.36
257.712
-891.362
-2101.53
-3367.55
-4683.44
-6042.65
-7438.29
-8863.46
-10311.6
-11776.9
-13255.2
-14744.2
-16245.2
-17763.9
-19313
-20914.6
-22603.7
-24432.5
-26464.1
-28719.1
-30881.2
22798.9
20777.4
18801.5
17184
15898.6
14873.8
14047.8
13373.1
12813.7
12341.7
11934.3
11572.8
11240.8
10924.1
10609.6
10285.6
9941.2
9566.48
9152.26
8690.2
8172.82
7593.55
6946.8
6227.99
5433.67
4561.51
3610.39
2580.41
1472.91
290.449
-963.239
-2283.31
-3663.92
-5098.37
-6579.29
-8098.92
-9649.35
-11223
-12812.9
-14413.7
-16021.9
-17637.4
-19264.6
-20914.5
-22607.4
-24377
-26273.3
-28357.6
-30648.9
-32829.6
23803.3
21778.3
19796
18169.4
16872.9
15835.9
14996.9
14308.9
13736.1
13250.7
12829.8
12454.2
12107.5
11774.7
11442.5
11098.5
10731.3
10330.3
9885.92
9389.21
8832.23
8207.98
7510.48
6734.87
5877.47
4935.83
3908.8
2796.55
1600.59
323.773
-1029.78
-2454.72
-3944.6
-5492.01
-7088.8
-8726.29
-10395.6
-12088.1
-13795.9
-15512.1
-17232.2
-18954.7
-20682.6
-22425.6
-24202.5
-26045.4
-28002.6
-30134.3
-32457.9
-34655
24725.9
22698.5
20711.6
19078.7
17774.4
16728.6
15880.1
15182.2
14599.3
14103.4
13671.6
13284.5
12925.2
12578.5
12230.5
11868.4
11480.3
11055.1
10582.6
10053.4
9459.16
8792.46
8046.99
7217.61
6300.43
5292.91
4193.87
3003.56
1723.67
357.339
-1090.93
-2615.3
-4208.72
-5863.11
-7569.51
-9318.39
-11099.9
-12904.4
-14722.9
-16547.3
-18372.1
-20194.3
-22015.8
-23844.8
-25698.8
-27608.6
-29621.3
-31795.7
-34148.5
-36360.4
25571.2
23542.2
21552.3
19915
18605.3
17553.2
16697.9
15992.8
15402.3
14898.3
14457.8
14061.3
13691.4
13332.7
12970.8
12592.5
12185.4
11737.8
11239.3
10679.9
10050.8
9344.36
8553.86
7673.94
6700.54
5631.01
4464.16
3200.33
1841.4
390.753
-1146.7
-2764.66
-4455.5
-6210.46
-8019.85
-9873.27
-11760
-13669.4
-15591.3
-17516.7
-19438.8
-21353.5
-23261.5
-25169.8
-27094.6
-29065.6
-31128.9
-33342.2
-35721.4
-37946.6
26342.5
24312.5
22320.5
20680.2
19366.8
18310.5
17450.5
16740.2
16144
15633.9
15186.7
14782.5
14403.8
14034.8
13660.7
13267.9
12843.5
12375.6
11853.1
11265.8
10604.5
9861.1
9028.69
8101.67
7075.81
5948.4
4718.23
3385.74
1952.97
423.583
-1197.15
-2902.48
-4684.22
-6532.99
-8438.35
-10389.1
-12373.7
-14380.5
-16398.4
-18417.4
-20429.4
-22429.5
-24417.1
-26398.2
-28387.9
-30414.8
-32524
-34772.6
-37175.8
-39413
27041.8
25011.1
23017.8
21375.7
20059.9
19000.7
18137.5
17423.6
16823.5
16308.8
15856.3
15446
15060
14682.2
14297.5
13891.8
13452
12965.6
12421.3
11808.5
11117.6
10340.2
9469.11
8498.61
7424.3
6243.38
4954.66
3558.66
2057.59
455.375
-1242.38
-3028.48
-4894.24
-6829.66
-8823.63
-10864.2
-12939
-15035.5
-17141.7
-19246.6
-21341.2
-23419.5
-25479.9
-27527.3
-29576
-31653.7
-33804.6
-36085.2
-38510
-40758.1
27670.5
25639.4
23645.3
22002
20684.8
19623.9
18758.6
18042.4
17439.4
16921.5
16465
16049.8
15657.8
15272.5
14878.6
14461.6
14008.1
13505.2
12941.3
12305.3
11587.5
10779.1
9872.86
8862.69
7744.12
6514.3
5172.06
3717.99
2154.47
485.664
-1282.51
-3142.44
-5084.97
-7099.54
-9174.41
-11297
-13454
-15632.3
-17818.8
-20001.8
-22171.4
-24320.6
-26446.8
-28554.2
-30656.3
-32779.8
-34968.3
-37277.6
-39721.8
-41979.7
28229.4
26198.1
24203.5
22559.7
21241.7
20179.8
19313.3
18595.5
17990.7
17470.5
17011
16592
16195.1
15803.6
15401.8
14975
14509.4
13991.9
13410.4
12753.8
12011.9
11175.7
10237.8
9191.9
8033.47
6759.59
5369.1
3862.67
2242.84
513.986
-1317.67
-3244.16
-5255.88
-7341.76
-9489.49
-11685.8
-13916.8
-16168.6
-18427.3
-20680.5
-22917.3
-25129.9
-27315.1
-29476.2
-31625.8
-33790.1
-36012.1
-38347
-40808.4
-43075.1
28718.7
26687.3
24692.6
23048.5
21730.2
20667.9
19800.8
19082.2
18476.3
17954.4
17492.8
17070.8
16670
16273.2
15864.8
15429.6
14953.5
14423.3
13826.5
13151.7
12388.5
11527.8
10561.9
9484.41
8290.68
6977.77
5544.53
3991.71
2321.97
539.894
-1348.02
-3333.49
-5406.5
-7555.53
-9767.76
-12029.4
-14325.9
-16642.5
-18965.1
-21280.1
-23576.2
-25844.9
-28082
-30290.3
-32481.8
-34681.9
-36933.3
-39290.6
-41767.2
-44041.5
29138.6
27107.2
25112.5
23468.4
22150.1
21087.7
20220.4
19501.4
18894.9
18372
17908.8
17484.5
17080.6
16679.6
16265.6
15823.3
15338.4
14797.3
14187.3
13496.9
12715.4
11833.5
10843.4
9738.51
8514.22
7167.49
5697.21
4104.17
2391.17
562.968
-1373.71
-3410.28
-5536.4
-7740.14
-10008.2
-12326.4
-14679.5
-17052.4
-19430.1
-21798.6
-24145.9
-26462.9
-28744.8
-30993.8
-33221.4
-35452.4
-37729
-40105.7
-42595.3
-44876.2
29488.9
27457.6
25463.1
23819.1
22500.9
21438.6
20571.4
19852.3
19245.5
18721.9
18257.7
17831.7
17425.3
17021
16602.5
16154.4
15662.1
15111.9
14491
13787.5
12990.6
12091
11080.5
9952.7
8702.71
7327.55
5826.1
4199.23
2449.84
582.826
-1394.88
-3474.44
-5645.23