/*--------------------------------*- C++ -*----------------------------------*\
| =========                 |                                                 |
| \\      /  F ield         | OpenFOAM: The Open Source CFD Toolbox           |
|  \\    /   O peration     | Version:  5.x                                   |
|   \\  /    A nd           | Web:      www.OpenFOAM.org                      |
|    \\/     M anipulation  |                                                 |
\*---------------------------------------------------------------------------*/
FoamFile
{
    version     2.0;
    format      ascii;
    class       volScalarField;
    location    "1";
    object      gradTz;
}
// * * * * * * * * * * * * * * * * * * * * * * * * * * * * * * * * * * * * * //

dimensions      [0 -1 0 1 0 0 0];

internalField   nonuniform List<scalar> 
25000
(
-6333.94
-6850.5
-6999.8
-7052.27
-7073.8
-7083.52
-7088.01
-7089.92
-7090.43
-7090.16
-7089.42
-7088.4
-7087.21
-7085.93
-7084.59
-7083.24
-7081.88
-7080.55
-7079.25
-7078.01
-7076.82
-7075.7
-7074.66
-7073.72
-7072.89
-7072.17
-7071.58
-7071.13
-7070.83
-7070.69
-7070.71
-7070.91
-7071.29
-7071.85
-7072.59
-7073.5
-7074.57
-7075.76
-7077.03
-7078.32
-7079.5
-7080.39
-7080.64
-7079.65
-7076.21
-7067.65
-7047.38
-6996.25
-6848.34
-6333.22
-6850.5
-7839.64
-8182.48
-8317.12
-8375.82
-8403.14
-8415.93
-8421.35
-8422.76
-8421.87
-8419.62
-8416.55
-8412.98
-8409.13
-8405.12
-8401.06
-8397
-8393.01
-8389.12
-8385.38
-8381.82
-8378.47
-8375.37
-8372.55
-8370.05
-8367.89
-8366.13
-8364.78
-8363.88
-8363.45
-8363.53
-8364.13
-8365.27
-8366.95
-8369.16
-8371.89
-8375.08
-8378.66
-8382.49
-8386.36
-8389.94
-8392.66
-8393.55
-8390.88
-8381.23
-8357.4
-8302.48
-8171.86
-7833.2
-6848.34
-6999.81
-8182.51
-8628.78
-8816.25
-8901.91
-8942.91
-8962.36
-8970.56
-8972.5
-8970.82
-8966.97
-8961.79
-8955.83
-8949.4
-8942.72
-8935.96
-8929.21
-8922.57
-8916.1
-8909.88
-8903.95
-8898.38
-8893.22
-8888.53
-8884.37
-8880.79
-8877.85
-8875.61
-8874.11
-8873.4
-8873.53
-8874.53
-8876.42
-8879.22
-8882.9
-8887.44
-8892.76
-8898.73
-8905.13
-8911.64
-8917.7
-8922.42
-8924.32
-8920.69
-8906.47
-8871.26
-8791.9
-8611.1
-8171.8
-6996.22
-7052.31
-8317.23
-8816.36
-9035.06
-9138.37
-9188.9
-9213.06
-9223.06
-9225.05
-9222.32
-9216.73
-9209.4
-9201.01
-9191.99
-9182.66
-9173.2
-9163.78
-9154.51
-9145.48
-9136.79
-9128.52
-9120.75
-9113.55
-9107.01
-9101.2
-9096.2
-9092.1
-9088.96
-9086.87
-9085.88
-9086.06
-9087.45
-9090.09
-9094
-9099.15
-9105.49
-9112.94
-9121.3
-9130.31
-9139.5
-9148.17
-9155.15
-9158.51
-9154.88
-9138.02
-9095.6
-9001.07
-8791.68
-8302.26
-7047.29
-7073.89
-8376.07
-8902.23
-9138.63
-9252.67
-9309.2
-9336.23
-9347.08
-9348.59
-9344.53
-9337.07
-9327.5
-9316.65
-9305.06
-9293.07
-9280.95
-9268.87
-9257
-9245.44
-9234.32
-9223.73
-9213.77
-9204.56
-9196.18
-9188.74
-9182.34
-9177.09
-9173.07
-9170.38
-9169.12
-9169.34
-9171.13
-9174.51
-9179.51
-9186.11
-9194.25
-9203.81
-9214.58
-9226.21
-9238.16
-9249.57
-9259.07
-9264.41
-9261.73
-9244.04
-9197.89
-9095.09
-8870.63
-8356.91
-7067.47
-7083.69
-8403.61
-8943.58
-9189.6
-9309.7
-9369.55
-9397.94
-9408.78
-9409.34
-9403.69
-9394.2
-9382.34
-9369.02
-9354.84
-9340.23
-9325.46
-9310.77
-9296.33
-9282.27
-9268.75
-9255.87
-9243.77
-9232.57
-9222.38
-9213.34
-9205.56
-9199.16
-9194.27
-9191.01
-9189.46
-9189.73
-9191.9
-9196.01
-9202.09
-9210.13
-9220.05
-9231.72
-9244.89
-9259.16
-9273.92
-9288.2
-9300.47
-9308.25
-9307.34
-9290.32
-9243.08
-9136.66
-8905.16
-8380.31
-7075.88
-7088.29
-8416.72
-8963.54
-9214.43
-9337.51
-9398.79
-9427.39
-9437.53
-9436.74
-9429.27
-9417.65
-9403.44
-9387.63
-9370.89
-9353.67
-9336.31
-9319.04
-9302.07
-9285.57
-9269.68
-9254.57
-9240.36
-9227.2
-9215.24
-9204.61
-9195.48
-9187.96
-9182.22
-9178.38
-9176.56
-9176.87
-9179.41
-9184.23
-9191.38
-9200.83
-9212.51
-9226.26
-9241.82
-9258.75
-9276.36
-9293.61
-9308.86
-9319.44
-9320.97
-9305.72
-9259.27
-9152.24
-8918.41
-8389.35
-7079.12
-7090.34
-8422.57
-8972.43
-9225.36
-9349.48
-9410.89
-9438.86
-9447.78
-9445.33
-9435.88
-9422.03
-9405.44
-9387.15
-9367.88
-9348.1
-9328.18
-9308.4
-9288.96
-9270.06
-9251.87
-9234.56
-9218.29
-9203.22
-9189.52
-9177.35
-9166.88
-9158.27
-9151.69
-9147.28
-9145.19
-9145.55
-9148.45
-9153.97
-9162.15
-9172.99
-9186.39
-9202.2
-9220.13
-9239.69
-9260.18
-9280.47
-9298.84
-9312.51
-9316.95
-9304.27
-9259.85
-9154.13
-8920.73
-8391.21
-7079.83
-7091.04
-8424.53
-8975.27
-9228.57
-9352.49
-9413.16
-9439.94
-9447.28
-9442.95
-9431.39
-9415.28
-9396.3
-9375.56
-9353.79
-9331.51
-9309.1
-9286.85
-9265
-9243.77
-9223.33
-9203.89
-9185.61
-9168.68
-9153.29
-9139.62
-9127.85
-9118.18
-9110.78
-9105.82
-9103.46
-9103.85
-9107.1
-9113.3
-9122.5
-9134.68
-9149.77
-9167.6
-9187.85
-9210.03
-9233.38
-9256.74
-9278.32
-9295.26
-9302.93
-9293.34
-9251.75
-9148.51
-8917.17
-8389.29
-7079.23
-7091
-8424.33
-8974.71
-9227.36
-9350.32
-9409.71
-9434.92
-9440.45
-9434.11
-9420.38
-9401.98
-9380.64
-9357.49
-9333.28
-9308.56
-9283.73
-9259.09
-9234.91
-9211.42
-9188.81
-9167.3
-9147.07
-9128.34
-9111.31
-9096.18
-9083.15
-9072.44
-9064.24
-9058.75
-9056.13
-9056.55
-9060.13
-9066.99
-9077.17
-9090.66
-9107.39
-9127.18
-9149.7
-9174.45
-9200.64
-9227.06
-9251.87
-9272.17
-9283.27
-9277.08
-9238.82
-9138.75
-8910.4
-8385.32
-7077.92
-7090.53
-8422.9
-8972.22
-9223.64
-9345.18
-9402.96
-9426.38
-9429.96
-9421.53
-9405.61
-9384.95
-9361.3
-9335.79
-9309.22
-9282.14
-9254.97
-9228.03
-9201.61
-9175.93
-9151.23
-9127.72
-9105.62
-9085.16
-9066.54
-9050
-9035.76
-9024.05
-9015.08
-9009.06
-9006.19
-9006.63
-9010.54
-9018.03
-9029.15
-9043.9
-9062.22
-9083.9
-9108.63
-9135.88
-9164.84
-9194.27
-9222.3
-9245.99
-9260.58
-9257.96
-9223.27
-9126.76
-8901.9
-8380.26
-7076.24
-7089.84
-8420.81
-8968.66
-9218.52
-9338.39
-9394.38
-9415.89
-9417.47
-9406.95
-9388.87
-9365.99
-9340.09
-9312.31
-9283.46
-9254.11
-9224.7
-9195.56
-9166.98
-9139.22
-9112.51
-9087.09
-9063.2
-9041.06
-9020.93
-9003.04
-8987.64
-8974.96
-8965.25
-8958.73
-8955.61
-8956.08
-8960.29
-8968.37
-8980.39
-8996.36
-9016.19
-9039.7
-9066.56
-9096.22
-9127.86
-9160.23
-9191.41
-9218.44
-9236.53
-9237.51
-9206.51
-9113.71
-8892.59
-8374.68
-7074.38
-7089.04
-8418.38
-8964.56
-9212.7
-9330.78
-9384.91
-9404.49
-9404.06
-9391.48
-9371.3
-9346.29
-9318.21
-9288.26
-9257.24
-9225.73
-9194.18
-9162.95
-9132.31
-9102.56
-9073.95
-9046.71
-9021.11
-8997.39
-8975.81
-8956.64
-8940.12
-8926.53
-8916.11
-8909.11
-8905.75
-8906.23
-8910.73
-8919.38
-8932.26
-8949.37
-8970.65
-8995.9
-9024.79
-9056.76
-9090.97
-9126.16
-9160.4
-9190.68
-9212.18
-9216.73
-9189.38
-9100.33
-8883
-8368.92
-7072.46
-7088.18
-8415.81
-8960.26
-9206.62
-9322.89
-9375.16
-9392.83
-9390.45
-9375.89
-9353.69
-9326.63
-9296.5
-9264.49
-9231.41
-9197.86
-9164.29
-9131.07
-9098.5
-9066.88
-9036.46
-9007.5
-8980.29
-8955.07
-8932.13
-8911.73
-8894.17
-8879.71
-8868.61
-8861.15
-8857.56
-8858.06
-8862.83
-8872.01
-8885.69
-8903.89
-8926.53
-8953.43
-8984.24
-9018.4
-9055.06
-9092.94
-9130.09
-9163.49
-9188.28
-9196.27
-9172.49
-9087.1
-8873.51
-8363.2
-7070.55
-7087.33
-8413.24
-8955.96
-9200.58
-9315.07
-9365.54
-9381.38
-9377.13
-9360.68
-9336.57
-9307.58
-9275.52
-9241.57
-9206.56
-9171.1
-9135.64
-9100.56
-9066.19
-9032.8
-9000.69
-8970.13
-8941.4
-8914.78
-8890.56
-8869.02
-8850.47
-8835.19
-8823.47
-8815.58
-8811.77
-8812.28
-8817.3
-8826.97
-8841.41
-8860.62
-8884.53
-8912.97
-8945.58
-8981.8
-9020.76
-9061.18
-9101.07
-9137.42
-9165.34
-9176.6
-9156.23
-9074.35
-8864.34
-8357.68
-7068.71
-7086.51
-8410.77
-8951.83
-9194.78
-9307.57
-9356.33
-9370.43
-9364.44
-9346.21
-9320.32
-9289.54
-9255.68
-9219.93
-9183.14
-9145.9
-9108.69
-9071.89
-9035.83
-9000.82
-8967.14
-8935.09
-8904.96
-8877.04
-8851.62
-8829.03
-8809.56
-8793.52
-8781.21
-8772.92
-8768.91
-8769.42
-8774.67
-8784.8
-8799.93
-8820.08
-8845.18
-8875.04
-8909.32
-8947.44
-8988.55
-9031.32
-9073.78
-9112.88
-9143.72
-9158.06
-9140.88
-9062.31
-8855.68
-8352.46
-7066.97
-7085.73
-8408.45
-8947.95
-9189.33
-9300.55
-9347.71
-9360.21
-9352.6
-9332.75
-9305.21
-9272.79
-9237.27
-9199.88
-9161.44
-9122.58
-9083.76
-9045.39
-9007.79
-8971.29
-8936.18
-8902.77
-8871.34
-8842.23
-8815.72
-8792.16
-8771.85
-8755.11
-8742.26
-8733.6
-8729.4
-8729.92
-8735.37
-8745.92
-8761.68
-8782.68
-8808.86
-8840.03
-8875.84
-8915.72
-8958.79
-9003.72
-9048.54
-9090.17
-9123.71
-9140.88
-9126.66
-9051.14
-8847.65
-8347.62
-7065.35
-7085.02
-8406.32
-8944.4
-9184.35
-9294.13
-9339.84
-9350.88
-9341.8
-9320.46
-9291.44
-9257.52
-9220.52
-9181.64
-9141.72
-9101.39
-9061.13
-9021.33
-8982.34
-8944.49
-8908.09
-8873.44
-8840.85
-8810.66
-8783.17
-8758.72
-8737.65
-8720.28
-8706.94
-8697.94
-8693.57
-8694.09
-8699.72
-8710.65
-8726.98
-8748.75
-8775.91
-8808.26
-8845.45
-8886.91
-8931.75
-8978.65
-9025.6
-9069.53
-9105.5
-9125.25
-9113.71
-9040.97
-8840.33
-8343.21
-7063.87
-7084.39
-8404.41
-8941.22
-9179.88
-9288.38
-9332.8
-9342.54
-9332.15
-9309.5
-9279.15
-9243.92
-9205.59
-9165.39
-9124.15
-9082.52
-9040.97
-8999.91
-8959.69
-8920.65
-8883.09
-8847.35
-8813.73
-8782.57
-8754.21
-8728.98
-8707.23
-8689.3
-8675.53
-8666.23
-8661.7
-8662.22
-8668.01
-8679.27
-8696.1
-8718.56
-8746.58
-8779.98
-8818.39
-8861.26
-8907.67
-8956.31
-9005.16
-9051.13
-9089.28
-9111.31
-9102.17
-9031.9
-8833.81
-8339.27
-7062.56
-7083.83
-8402.74
-8938.44
-9175.99
-9283.37
-9326.66
-9335.27
-9323.74
-9299.95
-9268.46
-9232.07
-9192.6
-9151.25
-9108.88
-9066.12
-9023.45
-8981.3
-8940.01
-8899.93
-8861.37
-8824.67
-8790.16
-8758.17
-8729.05
-8703.14
-8680.8
-8662.38
-8648.23
-8638.67
-8634
-8634.52
-8640.45
-8651.99
-8669.26
-8692.31
-8721.08
-8755.39
-8794.87
-8838.95
-8886.73
-8936.88
-8987.38
-9035.12
-9075.15
-9099.18
-9092.12
-9024
-8828.12
-8335.85
-7061.41
-7083.37
-8401.34
-8936.1
-9172.71
-9279.14
-9321.48
-9329.13
-9316.65
-9291.9
-9259.44
-9222.09
-9181.65
-9139.33
-9096
-9052.29
-9008.69
-8965.61
-8923.42
-8882.47
-8843.07
-8805.57
-8770.3
-8737.61
-8707.85
-8681.37
-8658.53
-8639.7
-8625.23
-8615.44
-8610.66
-8611.18
-8617.23
-8629
-8646.64
-8670.19
-8699.59
-8734.65
-8775.03
-8820.14
-8869.07
-8920.49
-8972.38
-9021.61
-9063.24
-9088.94
-9083.64
-9017.34
-8823.33
-8332.95
-7060.45
-7082.99
-8400.2
-8934.2
-9170.05
-9275.72
-9317.3
-9324.18
-9310.92
-9285.39
-9252.16
-9214.03
-9172.81
-9129.72
-9085.61
-9041.13
-8996.77
-8952.95
-8910.04
-8868.37
-8828.3
-8790.15
-8754.28
-8721.02
-8690.73
-8663.79
-8640.56
-8621.39
-8606.66
-8596.7
-8591.82
-8592.33
-8598.48
-8610.45
-8628.38
-8652.33
-8682.23
-8717.92
-8759.01
-8804.95
-8854.81
-8907.26
-8960.26
-9010.7
-9053.62
-9080.67
-9076.78
-9011.96
-8819.45
-8330.62
-7059.67
-7082.7
-8399.35
-8932.77
-9168.05
-9273.14
-9314.14
-9320.44
-9306.6
-9280.48
-9246.66
-9207.94
-9166.13
-9122.45
-9077.77
-9032.71
-8987.78
-8943.39
-8899.93
-8857.74
-8817.15
-8778.52
-8742.18
-8708.49
-8677.81
-8650.52
-8626.99
-8607.57
-8592.64
-8582.54
-8577.6
-8578.1
-8584.32
-8596.43
-8614.59
-8638.84
-8669.13
-8705.27
-8746.92
-8793.47
-8844.04
-8897.26
-8951.11
-9002.46
-9046.35
-9074.43
-9071.61
-9007.89
-8816.53
-8328.85
-7059.08
-7082.51
-8398.77
-8931.81
-9166.7
-9271.41
-9312.02
-9317.93
-9303.7
-9277.19
-9242.98
-9203.86
-9161.66
-9117.59
-9072.51
-9027.06
-8981.75
-8936.99
-8893.16
-8850.61
-8809.68
-8770.72
-8734.07
-8700.1
-8669.16
-8641.64
-8617.89
-8598.31
-8583.25
-8573.06
-8568.07
-8568.57
-8574.83
-8587.04
-8605.35
-8629.8
-8660.35
-8696.8
-8738.81
-8785.78
-8836.82
-8890.56
-8944.98
-8996.94
-9041.47
-9070.24
-9068.14
-9005.16
-8814.56
-8327.67
-7058.68
-7082.41
-8398.48
-8931.33
-9166.03
-9270.54
-9310.96
-9316.68
-9302.25
-9275.54
-9241.13
-9201.82
-9159.42
-9115.15
-9069.88
-9024.23
-8978.73
-8933.78
-8889.77
-8847.04
-8805.94
-8766.81
-8730.01
-8695.89
-8664.82
-8637.18
-8613.34
-8593.67
-8578.54
-8568.3
-8563.29
-8563.79
-8570.07
-8582.34
-8600.72
-8625.27
-8655.94
-8692.55
-8734.75
-8781.93
-8833.2
-8887.2
-8941.9
-8994.17
-9039.03
-9068.14
-9066.4
-9003.8
-8813.58
-8327.08
-7058.48
-7082.41
-8398.48
-8931.33
-9166.03
-9270.54
-9310.96
-9316.68
-9302.25
-9275.54
-9241.13
-9201.82
-9159.42
-9115.15
-9069.88
-9024.23
-8978.73
-8933.78
-8889.77
-8847.04
-8805.94
-8766.81
-8730.01
-8695.89
-8664.82
-8637.18
-8613.34
-8593.67
-8578.54
-8568.3
-8563.29
-8563.79
-8570.07
-8582.34
-8600.72
-8625.27
-8655.94
-8692.56
-8734.75
-8781.93
-8833.2
-8887.21
-8941.9
-8994.17
-9039.03
-9068.14
-9066.4
-9003.8
-8813.58
-8327.08
-7058.48
-7082.51
-8398.77
-8931.81
-9166.7
-9271.41
-9312.02
-9317.93
-9303.7
-9277.19
-9242.98
-9203.86
-9161.66
-9117.59
-9072.51
-9027.06
-8981.75
-8936.99
-8893.16
-8850.61
-8809.68
-8770.72
-8734.07
-8700.1
-8669.16
-8641.64
-8617.89
-8598.31
-8583.25
-8573.06
-8568.07
-8568.57
-8574.83
-8587.05
-8605.35
-8629.8
-8660.35
-8696.8
-8738.81
-8785.79
-8836.82
-8890.57
-8944.98
-8996.94
-9041.48
-9070.24
-9068.14
-9005.17
-8814.57
-8327.67
-7058.68
-7082.7
-8399.35
-8932.77
-9168.05
-9273.14
-9314.14
-9320.44
-9306.6
-9280.48
-9246.66
-9207.94
-9166.13
-9122.45
-9077.77
-9032.71
-8987.77
-8943.39
-8899.93
-8857.74
-8817.15
-8778.52
-8742.18
-8708.49
-8677.82
-8650.52
-8626.99
-8607.57
-8592.64
-8582.54
-8577.6
-8578.11
-8584.32
-8596.44
-8614.59
-8638.84
-8669.13
-8705.28
-8746.92
-8793.48
-8844.04
-8897.27
-8951.11
-9002.46
-9046.35
-9074.43
-9071.61
-9007.89
-8816.53
-8328.85
-7059.08
-7082.99
-8400.2
-8934.2
-9170.05
-9275.72
-9317.3
-9324.18
-9310.92
-9285.39
-9252.16
-9214.03
-9172.81
-9129.72
-9085.61
-9041.13
-8996.77
-8952.95
-8910.03
-8868.37
-8828.3
-8790.15
-8754.28
-8721.02
-8690.73
-8663.79
-8640.56
-8621.4
-8606.66
-8596.7
-8591.83
-8592.34
-8598.48
-8610.45
-8628.39
-8652.33
-8682.24
-8717.92
-8759.02
-8804.95
-8854.82
-8907.27
-8960.27
-9010.71
-9053.62
-9080.68
-9076.79
-9011.96
-8819.46
-8330.62
-7059.67
-7083.36
-8401.34
-8936.1
-9172.71
-9279.14
-9321.48
-9329.13
-9316.65
-9291.89
-9259.44
-9222.09
-9181.65
-9139.33
-9096
-9052.29
-9008.69
-8965.61
-8923.42
-8882.46
-8843.07
-8805.57
-8770.3
-8737.61
-8707.85
-8681.37
-8658.53
-8639.7
-8625.23
-8615.44
-8610.67
-8611.18
-8617.23
-8629.01
-8646.65
-8670.2
-8699.59
-8734.66
-8775.04
-8820.14
-8869.08
-8920.5
-8972.38
-9021.62
-9063.25
-9088.95
-9083.64
-9017.35
-8823.33
-8332.96
-7060.45
-7083.83
-8402.74
-8938.44
-9175.99
-9283.37
-9326.66
-9335.27
-9323.74
-9299.95
-9268.46
-9232.07
-9192.6
-9151.25
-9108.88
-9066.11
-9023.45
-8981.29
-8940.01
-8899.92
-8861.37
-8824.67
-8790.16
-8758.17
-8729.05
-8703.14
-8680.8
-8662.39
-8648.23
-8638.67
-8634.01
-8634.52
-8640.46
-8652
-8669.27
-8692.32
-8721.09
-8755.39
-8794.88
-8838.96
-8886.74
-8936.89
-8987.39
-9035.12
-9075.16
-9099.19
-9092.12
-9024.01
-8828.13
-8335.85
-7061.41
-7084.39
-8404.41
-8941.21
-9179.88
-9288.38
-9332.8
-9342.53
-9332.14
-9309.49
-9279.15
-9243.91
-9205.59
-9165.38
-9124.15
-9082.52
-9040.97
-8999.91
-8959.69
-8920.65
-8883.09
-8847.35
-8813.73
-8782.57
-8754.21
-8728.98
-8707.23
-8689.31
-8675.53
-8666.23
-8661.7
-8662.22
-8668.02
-8679.27
-8696.11
-8718.57
-8746.59
-8779.98
-8818.4
-8861.27
-8907.68
-8956.32
-9005.17
-9051.14
-9089.29
-9111.32
-9102.18
-9031.91
-8833.81
-8339.28
-7062.56
-7085.02
-8406.32
-8944.4
-9184.35
-9294.13
-9339.84
-9350.88
-9341.8
-9320.46
-9291.44
-9257.52
-9220.52
-9181.64
-9141.72
-9101.39
-9061.12
-9021.33
-8982.34
-8944.49
-8908.09
-8873.44
-8840.85
-8810.66
-8783.17
-8758.72
-8737.65
-8720.29
-8706.95
-8697.95
-8693.58
-8694.1
-8699.73
-8710.65
-8726.99
-8748.76
-8775.92
-8808.27
-8845.46
-8886.92
-8931.76
-8978.66
-9025.61
-9069.54
-9105.52
-9125.26
-9113.72
-9040.98
-8840.34
-8343.21
-7063.87
-7085.73
-8408.45
-8947.95
-9189.33
-9300.55
-9347.71
-9360.21
-9352.6
-9332.74
-9305.21
-9272.78
-9237.27
-9199.88
-9161.44
-9122.58
-9083.76
-9045.39
-9007.79
-8971.29
-8936.18
-8902.76
-8871.34
-8842.23
-8815.72
-8792.16
-8771.85
-8755.11
-8742.27
-8733.6
-8729.4
-8729.92
-8735.37
-8745.92
-8761.69
-8782.69
-8808.87
-8840.04
-8875.85
-8915.73
-8958.8
-9003.74
-9048.56
-9090.18
-9123.72
-9140.89
-9126.67
-9051.15
-8847.65
-8347.62
-7065.35
-7086.51
-8410.77
-8951.83
-9194.77
-9307.57
-9356.33
-9370.43
-9364.44
-9346.21
-9320.31
-9289.54
-9255.68
-9219.93
-9183.13
-9145.9
-9108.69
-9071.89
-9035.83
-9000.82
-8967.14
-8935.09
-8904.96
-8877.04
-8851.63
-8829.03
-8809.56
-8793.53
-8781.22
-8772.93
-8768.92
-8769.43
-8774.68
-8784.81
-8799.94
-8820.09
-8845.19
-8875.05
-8909.33
-8947.46
-8988.56
-9031.34
-9073.8
-9112.89
-9143.74
-9158.07
-9140.89
-9062.31
-8855.69
-8352.47
-7066.97
-7087.33
-8413.24
-8955.96
-9200.58
-9315.07
-9365.54
-9381.37
-9377.13
-9360.68
-9336.56
-9307.58
-9275.52
-9241.57
-9206.56
-9171.1
-9135.64
-9100.56
-9066.18
-9032.8
-9000.69
-8970.13
-8941.4
-8914.78
-8890.56
-8869.03
-8850.47
-8835.2
-8823.47
-8815.58
-8811.78
-8812.29
-8817.31
-8826.98
-8841.42
-8860.63
-8884.55
-8912.98
-8945.59
-8981.81
-9020.78
-9061.19
-9101.09
-9137.43
-9165.35
-9176.62
-9156.24
-9074.36
-8864.35
-8357.69
-7068.71
-7088.18
-8415.81
-8960.26
-9206.62
-9322.89
-9375.16
-9392.83
-9390.45
-9375.89
-9353.68
-9326.63
-9296.5
-9264.48
-9231.41
-9197.86
-9164.29
-9131.07
-9098.5
-9066.87
-9036.45
-9007.5
-8980.29
-8955.07
-8932.13
-8911.74
-8894.17
-8879.71
-8868.62
-8861.16
-8857.57
-8858.07
-8862.84
-8872.02
-8885.71
-8903.9
-8926.55
-8953.44
-8984.25
-9018.41
-9055.08
-9092.96
-9130.11
-9163.5
-9188.3
-9196.28
-9172.5
-9087.11
-8873.51
-8363.21
-7070.55
-7089.04
-8418.38
-8964.56
-9212.7
-9330.78
-9384.91
-9404.48
-9404.06
-9391.48
-9371.3
-9346.28
-9318.21
-9288.26
-9257.24
-9225.73
-9194.18
-9162.94
-9132.31
-9102.56
-9073.94
-9046.71
-9021.11
-8997.39
-8975.81
-8956.64
-8940.13
-8926.53
-8916.12
-8909.11
-8905.75
-8906.24
-8910.74
-8919.39
-8932.27
-8949.38
-8970.66
-8995.91
-9024.8
-9056.77
-9090.99
-9126.18
-9160.41
-9190.69
-9212.2
-9216.74
-9189.4
-9100.34
-8883.01
-8368.92
-7072.46
-7089.84
-8420.81
-8968.66
-9218.52
-9338.38
-9394.38
-9415.89
-9417.46
-9406.95
-9388.87
-9365.99
-9340.08
-9312.3
-9283.46
-9254.11
-9224.7
-9195.56
-9166.98
-9139.21
-9112.51
-9087.09
-9063.2
-9041.06
-9020.93
-9003.04
-8987.64
-8974.97
-8965.26
-8958.74
-8955.62
-8956.09
-8960.3
-8968.38
-8980.41
-8996.37
-9016.2
-9039.72
-9066.57
-9096.24
-9127.88
-9160.24
-9191.43
-9218.46
-9236.54
-9237.53
-9206.52
-9113.72
-8892.6
-8374.68
-7074.39
-7090.53
-8422.9
-8972.22
-9223.64
-9345.18
-9402.96
-9426.37
-9429.95
-9421.53
-9405.61
-9384.95
-9361.29
-9335.79
-9309.21
-9282.14
-9254.96
-9228.03
-9201.6
-9175.93
-9151.23
-9127.72
-9105.62
-9085.16
-9066.54
-9050
-9035.77
-9024.05
-9015.08
-9009.07
-9006.19
-9006.64
-9010.55
-9018.04
-9029.16
-9043.91
-9062.23
-9083.92
-9108.65
-9135.9
-9164.85
-9194.29
-9222.32
-9246
-9260.6
-9257.98
-9223.29
-9126.77
-8901.91
-8380.27
-7076.25
-7091
-8424.33
-8974.71
-9227.36
-9350.32
-9409.71
-9434.92
-9440.45
-9434.1
-9420.37
-9401.98
-9380.64
-9357.48
-9333.27
-9308.55
-9283.72
-9259.09
-9234.91
-9211.41
-9188.81
-9167.29
-9147.07
-9128.34
-9111.31
-9096.18
-9083.16
-9072.45
-9064.25
-9058.75
-9056.13
-9056.55
-9060.14
-9067
-9077.18
-9090.67
-9107.4
-9127.19
-9149.72
-9174.47
-9200.65
-9227.07
-9251.88
-9272.19
-9283.28
-9277.1
-9238.83
-9138.76
-8910.4
-8385.33
-7077.93
-7091.04
-8424.53
-8975.27
-9228.57
-9352.49
-9413.16
-9439.94
-9447.28
-9442.95
-9431.39
-9415.28
-9396.3
-9375.56
-9353.79
-9331.5
-9309.09
-9286.85
-9265
-9243.76
-9223.33
-9203.89
-9185.61
-9168.68
-9153.29
-9139.62
-9127.86
-9118.18
-9110.78
-9105.82
-9103.46
-9103.85
-9107.11
-9113.31
-9122.51
-9134.69
-9149.79
-9167.61
-9187.86
-9210.04
-9233.4
-9256.76
-9278.33
-9295.27
-9302.95
-9293.36
-9251.77
-9148.52
-8917.18
-8389.3
-7079.23
-7090.34
-8422.57
-8972.43
-9225.36
-9349.48
-9410.89
-9438.86
-9447.78
-9445.33
-9435.87
-9422.03
-9405.44
-9387.15
-9367.87
-9348.1
-9328.18
-9308.39
-9288.95
-9270.05
-9251.86
-9234.55
-9218.28
-9203.22
-9189.52
-9177.35
-9166.88
-9158.28
-9151.69
-9147.29
-9145.2
-9145.55
-9148.45
-9153.98
-9162.16
-9173
-9186.41
-9202.22
-9220.14
-9239.71
-9260.2
-9280.49
-9298.85
-9312.53
-9316.97
-9304.29
-9259.86
-9154.14
-8920.74
-8391.22
-7079.83
-7088.29
-8416.72
-8963.54
-9214.43
-9337.51
-9398.79
-9427.39
-9437.53
-9436.74
-9429.27
-9417.65
-9403.43
-9387.63
-9370.89
-9353.67
-9336.31
-9319.04
-9302.07
-9285.57
-9269.68
-9254.56
-9240.36
-9227.2
-9215.24
-9204.61
-9195.48
-9187.97
-9182.22
-9178.38
-9176.56
-9176.88
-9179.42
-9184.24
-9191.39
-9200.84
-9212.52
-9226.27
-9241.83
-9258.76
-9276.37
-9293.63
-9308.87
-9319.46
-9320.98
-9305.74
-9259.28
-9152.25
-8918.42
-8389.35
-7079.12
-7083.69
-8403.61
-8943.58
-9189.6
-9309.7
-9369.55
-9397.94
-9408.78
-9409.34
-9403.69
-9394.2
-9382.34
-9369.01
-9354.84
-9340.22
-9325.46
-9310.77
-9296.32
-9282.27
-9268.74
-9255.87
-9243.77
-9232.57
-9222.38
-9213.34
-9205.56
-9199.16
-9194.28
-9191.01
-9189.46
-9189.74
-9191.9
-9196.01
-9202.1
-9210.13
-9220.06
-9231.73
-9244.9
-9259.17
-9273.93
-9288.21
-9300.48
-9308.26
-9307.35
-9290.33
-9243.09
-9136.67
-8905.17
-8380.31
-7075.88
-7073.89
-8376.07
-8902.23
-9138.63
-9252.67
-9309.2
-9336.23
-9347.08
-9348.59
-9344.53
-9337.07
-9327.5
-9316.65
-9305.05
-9293.07
-9280.95
-9268.87
-9256.99
-9245.44
-9234.31
-9223.72
-9213.77
-9204.55
-9196.18
-9188.74
-9182.34
-9177.09
-9173.07
-9170.38
-9169.12
-9169.35
-9171.13
-9174.51
-9179.51
-9186.11
-9194.26
-9203.82
-9214.59
-9226.22
-9238.17
-9249.58
-9259.08
-9264.42
-9261.74
-9244.06
-9197.9
-9095.1
-8870.64
-8356.92
-7067.47
-7052.31
-8317.23
-8816.36
-9035.07
-9138.37
-9188.9
-9213.06
-9223.06
-9225.05
-9222.32
-9216.73
-9209.4
-9201
-9191.99
-9182.66
-9173.2
-9163.78
-9154.5
-9145.48
-9136.79
-9128.52
-9120.75
-9113.55
-9107.01
-9101.2
-9096.2
-9092.1
-9088.96
-9086.87
-9085.88
-9086.06
-9087.45
-9090.1
-9094
-9099.15
-9105.5
-9112.94
-9121.31
-9130.31
-9139.51
-9148.17
-9155.16
-9158.52
-9154.89
-9138.03
-9095.6
-9001.08
-8791.69
-8302.27
-7047.3
-6999.81
-8182.51
-8628.78
-8816.25
-8901.91
-8942.91
-8962.36
-8970.56
-8972.5
-8970.82
-8966.97
-8961.79
-8955.83
-8949.4
-8942.72
-8935.95
-8929.21
-8922.56
-8916.1
-8909.87
-8903.95
-8898.38
-8893.22
-8888.53
-8884.37
-8880.79
-8877.85
-8875.61
-8874.11
-8873.4
-8873.53
-8874.53
-8876.42
-8879.22
-8882.91
-8887.45
-8892.77
-8898.74
-8905.14
-8911.64
-8917.7
-8922.43
-8924.32
-8920.7
-8906.47
-8871.27
-8791.9
-8611.11
-8171.8
-6996.22
-6850.5
-7839.64
-8182.48
-8317.12
-8375.82
-8403.14
-8415.93
-8421.35
-8422.76
-8421.87
-8419.62
-8416.55
-8412.98
-8409.13
-8405.12
-8401.06
-8397
-8393.01
-8389.12
-8385.38
-8381.81
-8378.47
-8375.36
-8372.55
-8370.04
-8367.89
-8366.13
-8364.78
-8363.87
-8363.45
-8363.53
-8364.13
-8365.27
-8366.95
-8369.16
-8371.89
-8375.08
-8378.66
-8382.49
-8386.36
-8389.94
-8392.66
-8393.56
-8390.88
-8381.23
-8357.41
-8302.48
-8171.86
-7833.2
-6848.34
-6333.94
-6850.5
-6999.8
-7052.27
-7073.8
-7083.52
-7088.01
-7089.92
-7090.43
-7090.16
-7089.42
-7088.4
-7087.21
-7085.93
-7084.59
-7083.24
-7081.88
-7080.55
-7079.25
-7078.01
-7076.82
-7075.7
-7074.66
-7073.72
-7072.89
-7072.17
-7071.58
-7071.13
-7070.83
-7070.69
-7070.72
-7070.92
-7071.3
-7071.86
-7072.6
-7073.5
-7074.57
-7075.76
-7077.03
-7078.32
-7079.5
-7080.39
-7080.64
-7079.65
-7076.21
-7067.65
-7047.38
-6996.25
-6848.35
-6333.22
-1401.83
-2230.07
-2523.72
-2646.19
-2704.22
-2734.35
-2750.95
-2760.4
-2765.79
-2768.78
-2770.28
-2770.83
-2770.77
-2770.32
-2769.61
-2768.73
-2767.76
-2766.74
-2765.7
-2764.66
-2763.66
-2762.7
-2761.8
-2760.98
-2760.24
-2759.59
-2759.06
-2758.64
-2758.34
-2758.18
-2758.14
-2758.24
-2758.46
-2758.79
-2759.21
-2759.69
-2760.15
-2760.52
-2760.66
-2760.35
-2759.25
-2756.81
-2752.1
-2743.47
-2727.81
-2698.72
-2641.82
-2520.54
-2228.15
-1401.19
-2230.07
-3939.71
-4651.17
-4975.87
-5137.27
-5223.2
-5271.2
-5298.71
-5314.48
-5323.22
-5327.6
-5329.18
-5328.97
-5327.59
-5325.45
-5322.82
-5319.91
-5316.84
-5313.71
-5310.62
-5307.6
-5304.73
-5302.03
-5299.56
-5297.34
-5295.42
-5293.82
-5292.56
-5291.67
-5291.17
-5291.07
-5291.36
-5292.02
-5293.02
-5294.29
-5295.72
-5297.14
-5298.27
-5298.71
-5297.84
-5294.66
-5287.55
-5273.84
-5248.78
-5203.59
-5120.79
-4962.77
-4641.67
-3933.94
-2228.14
-2523.73
-4651.2
-5610.39
-6075.24
-6316.11
-6447.93
-6522.87
-6566.29
-6591.34
-6605.23
-6612.14
-6614.58
-6614.1
-6611.73
-6608.12
-6603.72
-6598.86
-6593.74
-6588.54
-6583.38
-6578.37
-6573.58
-6569.1
-6564.99
-6561.3
-6558.1
-6555.43
-6553.34
-6551.87
-6551.04
-6550.87
-6551.35
-6552.46
-6554.14
-6556.27
-6558.67
-6561.07
-6563.03
-6563.89
-6562.65
-6557.71
-6546.54
-6524.92
-6485.59
-6415.32
-6288.7
-6053.45
-5594.58
-4641.61
-2520.52
-2646.23
-4975.97
-6075.33
-6630.28
-6927.44
-7094.08
-7190.46
-7246.94
-7279.72
-7297.91
-7306.87
-7309.86
-7308.96
-7305.5
-7300.37
-7294.18
-7287.35
-7280.19
-7272.91
-7265.71
-7258.7
-7252.02
-7245.76
-7240.02
-7234.88
-7230.41
-7226.68
-7223.77
-7221.71
-7220.56
-7220.32
-7221.01
-7222.57
-7224.93
-7227.93
-7231.35
-7234.78
-7237.66
-7239.11
-7237.78
-7231.58
-7217.19
-7189.2
-7138.43
-7048.57
-6889.17
-6599.88
-6053.26
-4962.58
-2641.74
-2704.3
-5137.49
-6316.4
-6927.66
-7262.9
-7454.59
-7567.09
-7633.67
-7672.49
-7693.99
-7704.42
-7707.63
-7706.1
-7701.44
-7694.73
-7686.71
-7677.91
-7668.7
-7659.37
-7650.13
-7641.15
-7632.59
-7624.57
-7617.22
-7610.63
-7604.9
-7600.14
-7596.41
-7593.78
-7592.3
-7592.01
-7592.89
-7594.91
-7597.97
-7601.87
-7606.33
-7610.87
-7614.8
-7617.03
-7615.94
-7609.04
-7592.41
-7559.72
-7500.45
-7396.31
-7213.9
-6888.73
-6288.14
-5120.35
-2698.56
-2734.5
-5223.62
-6448.53
-7094.7
-7455.04
-7664.07
-7788.12
-7862.08
-7905.32
-7929.16
-7940.46
-7943.54
-7941.16
-7935.18
-7926.82
-7916.95
-7906.17
-7894.93
-7883.55
-7872.29
-7861.36
-7850.94
-7841.19
-7832.25
-7824.23
-7817.27
-7811.48
-7806.94
-7803.74
-7801.95
-7801.61
-7802.7
-7805.19
-7808.95
-7813.78
-7819.32
-7825.04
-7830.13
-7833.35
-7832.87
-7825.85
-7807.93
-7772.15
-7707.08
-7593.19
-7395.45
-7047.35
-6414.16
-5202.77
-2727.51
-2751.2
-5271.9
-6523.92
-7191.69
-7568.24
-7788.89
-7920.87
-7999.91
-8046.14
-8071.42
-8083.04
-8085.64
-8082.22
-8074.79
-8064.73
-8052.97
-8040.22
-8026.95
-8013.54
-8000.3
-7987.45
-7975.21
-7963.75
-7953.24
-7943.82
-7935.65
-7928.84
-7923.51
-7919.76
-7917.67
-7917.27
-7918.58
-7921.54
-7926.02
-7931.79
-7938.45
-7945.42
-7951.79
-7956.21
-7956.66
-7950.07
-7931.75
-7894.29
-7825.67
-7705.64
-7498.25
-7136.07
-6483.55
-5247.42
-2743
-2760.77
-5299.8
-6567.96
-7249
-7635.82
-7863.96
-8001.1
-8083.42
-8131.44
-8157.39
-8168.85
-8170.66
-8166.01
-8157.04
-8145.21
-8131.57
-8116.84
-8101.56
-8086.16
-8070.96
-8056.23
-8042.2
-8029.07
-8017.02
-8006.24
-7996.88
-7989.08
-7982.98
-7978.69
-7976.3
-7975.86
-7977.38
-7980.82
-7986.02
-7992.74
-8000.57
-8008.84
-8016.6
-8022.4
-8024.07
-8018.39
-8000.41
-7962.42
-7892.06
-7768.6
-7555.64
-7185.28
-6521.72
-5271.75
-2751.38
-2766.34
-5316.07
-6593.82
-7282.86
-7675.97
-7908.74
-8049
-8133.19
-8182.05
-8208.05
-8218.93
-8219.7
-8213.67
-8203.08
-8189.46
-8173.92
-8157.23
-8139.98
-8122.63
-8105.51
-8088.94
-8073.16
-8058.4
-8044.86
-8032.74
-8022.22
-8013.45
-8006.6
-8001.78
-7999.11
-7998.63
-8000.38
-8004.29
-8010.22
-8017.9
-8026.9
-8036.53
-8045.77
-8053.08
-8056.23
-8051.83
-8034.79
-7997.21
-7926.46
-7801.56
-7585.87
-7211.26
-6541.84
-5284.55
-2755.78
-2769.53
-5325.42
-6608.71
-7302.42
-7699.17
-7934.55
-8076.47
-8161.49
-8210.48
-8236.03
-8246.02
-8245.55
-8238.03
-8225.75
-8210.33
-8192.9
-8174.29
-8155.11
-8135.84
-8116.87
-8098.5
-8081.02
-8064.68
-8049.69
-8036.27
-8024.62
-8014.92
-8007.34
-8002.02
-7999.06
-7998.56
-8000.52
-8004.9
-8011.56
-8020.21
-8030.39
-8041.4
-8052.17
-8061.12
-8065.92
-8063.11
-8047.47
-8010.97
-7940.83
-7815.92
-7599.43
-7223.16
-6551.19
-5290.53
-2757.84
-2771.27
-5330.53
-6616.84
-7313.04
-7711.67
-7948.3
-8090.85
-8175.94
-8224.52
-8249.27
-8258.13
-8256.29
-8247.19
-8233.21
-8215.99
-8196.7
-8176.2
-8155.14
-8134.02
-8113.24
-8093.14
-8074.02
-8056.15
-8039.76
-8025.09
-8012.36
-8001.75
-7993.47
-7987.65
-7984.43
-7983.9
-7986.08
-7990.93
-7998.3
-8007.9
-8019.27
-8031.68
-8044.01
-8054.66
-8061.25
-8060.23
-8046.32
-8011.39
-7942.56
-7818.61
-7602.64
-7226.39
-6553.95
-5292.4
-2758.49
-2772.12
-5333
-6620.72
-7318.02
-7717.37
-7954.31
-8096.78
-8181.42
-8229.22
-8252.91
-8260.49
-8257.18
-8246.48
-8230.79
-8211.78
-8190.68
-8168.35
-8145.47
-8122.56
-8100.05
-8078.29
-8057.6
-8038.25
-8020.52
-8004.65
-7990.87
-7979.4
-7970.44
-7964.15
-7960.69
-7960.13
-7962.52
-7967.83
-7975.89
-7986.44
-7998.97
-8012.76
-8026.67
-8039.06
-8047.49
-8048.41
-8036.44
-8003.4
-7936.35
-7814.01
-7599.41
-7224.28
-6552.68
-5291.74
-2758.29
-2772.4
-5333.8
-6621.92
-7319.42
-7718.74
-7955.38
-8097.3
-8181.13
-8227.92
-8250.39
-8256.59
-8251.76
-8239.45
-8222.07
-8201.34
-8178.48
-8154.39
-8129.77
-8105.15
-8080.98
-8057.63
-8035.43
-8014.69
-7995.67
-7978.66
-7963.89
-7951.59
-7941.98
-7935.25
-7931.54
-7930.96
-7933.57
-7939.31
-7948.05
-7959.5
-7973.18
-7988.32
-8003.79
-8017.91
-8028.23
-8031.13
-8021.23
-7990.28
-7925.3
-7804.96
-7592.27
-7218.92
-6548.97
-5289.57
-2757.58
-2772.33
-5333.57
-6621.44
-7318.59
-7717.39
-7953.35
-8094.42
-8177.24
-8222.85
-8244.01
-8248.79
-8242.45
-8228.56
-8209.54
-8187.14
-8162.6
-8136.83
-8110.55
-8084.31
-8058.57
-8033.71
-8010.09
-7988.02
-7967.8
-7949.7
-7933.99
-7920.91
-7910.69
-7903.53
-7899.6
-7899
-7901.8
-7907.97
-7917.36
-7929.69
-7944.46
-7960.91
-7977.89
-7993.71
-8005.89
-8010.8
-8003
-7974.23
-7911.47
-7793.36
-7582.88
-7211.69
-6543.86
-5286.52
-2756.57
-2772.06
-5332.72
-6619.97
-7316.41
-7714.41
-7949.47
-8089.51
-8171.19
-8215.56
-8235.39
-8238.75
-8230.94
-8215.51
-8194.93
-8170.94
-8144.81
-8117.46
-8089.61
-8061.85
-8034.63
-8008.36
-7983.4
-7960.09
-7938.73
-7919.61
-7903.02
-7889.21
-7878.42
-7870.86
-7866.71
-7866.1
-7869.09
-7875.65
-7885.66
-7898.81
-7914.63
-7932.33
-7950.77
-7968.22
-7982.21
-7989.08
-7983.37
-7956.78
-7896.29
-7780.48
-7572.34
-7203.5
-6538.02
-5283.03
-2755.4
-2771.66
-5331.51
-6617.93
-7313.48
-7710.53
-7944.56
-8083.5
-8164
-8207.12
-8225.64
-8227.63
-8218.39
-8201.51
-8179.46
-8153.98
-8126.35
-8097.53
-8068.23
-8039.04
-8010.45
-7982.87
-7956.67
-7932.2
-7909.79
-7889.73
-7872.31
-7857.82
-7846.5
-7838.57
-7834.23
-7833.6
-7836.76