/*--------------------------------*- C++ -*----------------------------------*\
| =========                 |                                                 |
| \\      /  F ield         | OpenFOAM: The Open Source CFD Toolbox           |
|  \\    /   O peration     | Version:  5.x                                   |
|   \\  /    A nd           | Web:      www.OpenFOAM.org                      |
|    \\/     M anipulation  |                                                 |
\*---------------------------------------------------------------------------*/
FoamFile
{
    version     2.0;
    format      ascii;
    class       volScalarField;
    location    "1";
    object      T;
}
// * * * * * * * * * * * * * * * * * * * * * * * * * * * * * * * * * * * * * //

dimensions      [0 0 0 1 0 0 0];

internalField   nonuniform List<scalar> 
25000
(
300.738
301.385
301.771
302.05
302.275
302.467
302.637
302.792
302.937
303.073
303.202
303.325
303.444
303.559
303.67
303.777
303.881
303.98
304.076
304.166
304.252
304.332
304.405
304.472
304.531
304.582
304.623
304.654
304.674
304.683
304.679
304.662
304.631
304.585
304.525
304.449
304.358
304.249
304.124
303.982
303.822
303.643
303.444
303.225
302.98
302.707
302.394
302.02
301.536
300.788
301.385
302.971
304.038
304.846
305.507
306.077
306.584
307.048
307.479
307.886
308.272
308.642
308.998
309.342
309.674
309.996
310.306
310.604
310.889
311.161
311.418
311.657
311.878
312.078
312.255
312.406
312.529
312.622
312.683
312.709
312.697
312.646
312.554
312.418
312.237
312.01
311.735
311.411
311.036
310.61
310.13
309.596
309.002
308.345
307.617
306.802
305.875
304.785
303.424
301.536
301.77
304.036
305.669
306.953
308.023
308.954
309.79
310.556
311.269
311.943
312.583
313.198
313.789
314.36
314.912
315.446
315.961
316.457
316.932
317.384
317.81
318.209
318.576
318.908
319.202
319.454
319.659
319.814
319.915
319.958
319.939
319.854
319.701
319.475
319.175
318.798
318.341
317.802
317.18
316.472
315.676
314.789
313.806
312.719
311.516
310.177
308.664
306.912
304.789
302.023
302.047
304.839
306.945
308.649
310.096
311.369
312.519
313.577
314.566
315.5
316.391
317.246
318.069
318.865
319.634
320.379
321.097
321.788
322.451
323.081
323.676
324.232
324.745
325.208
325.618
325.97
326.256
326.473
326.614
326.674
326.647
326.53
326.316
326.002
325.584
325.058
324.422
323.671
322.805
321.82
320.712
319.479
318.114
316.607
314.945
313.102
311.038
308.679
305.89
302.4
302.268
305.49
308
310.078
311.87
313.463
314.91
316.249
317.504
318.693
319.828
320.918
321.969
322.985
323.969
324.92
325.839
326.724
327.571
328.378
329.139
329.851
330.507
331.1
331.626
332.075
332.442
332.72
332.901
332.978
332.945
332.794
332.522
332.121
331.586
330.915
330.102
329.144
328.037
326.78
325.368
323.797
322.059
320.147
318.042
315.72
313.138
310.221
306.836
302.72
302.455
306.044
308.907
311.32
313.428
315.318
317.047
318.654
320.165
321.6
322.972
324.291
325.565
326.797
327.99
329.144
330.26
331.334
332.363
333.344
334.269
335.134
335.931
336.653
337.291
337.838
338.285
338.623
338.843
338.937
338.897
338.716
338.385
337.899
337.251
336.437
335.451
334.289
332.949
331.426
329.717
327.817
325.72
323.415
320.887
318.11
315.041
311.608
307.681
303.004
302.618
306.529
309.707
312.422
314.82
316.987
318.982
320.843
322.599
324.27
325.871
327.413
328.903
330.345
331.742
333.096
334.404
335.663
336.871
338.021
339.107
340.122
341.058
341.905
342.655
343.297
343.822
344.219
344.479
344.59
344.544
344.332
343.946
343.377
342.618
341.664
340.51
339.151
337.583
335.802
333.805
331.588
329.143
326.462
323.529
320.32
316.793
312.879
308.453
303.262
302.763
306.963
310.424
313.415
316.08
318.506
320.75
322.852
324.841
326.739
328.56
330.316
332.015
333.661
335.257
336.803
338.298
339.739
341.12
342.436
343.679
344.841
345.912
346.883
347.741
348.477
349.079
349.534
349.832
349.96
349.909
349.668
349.227
348.577
347.712
346.623
345.306
343.755
341.966
339.936
337.661
335.138
332.36
329.318
326
322.38
318.422
314.058
309.166
303.501
302.894
307.355
311.075
314.319
317.231
319.897
322.374
324.704
326.915
329.029
331.061
333.023
334.923
336.766
338.554
340.287
341.963
343.579
345.129
346.606
348.002
349.306
350.509
351.599
352.564
353.391
354.067
354.579
354.915
355.061
355.005
354.735
354.242
353.515
352.546
351.327
349.853
348.117
346.116
343.846
341.304
338.487
335.39
332.004
328.318
324.311
319.946
315.159
309.832
303.724
303.014
307.713
311.669
315.146
318.286
321.176
323.873
326.417
328.838
331.156
333.39
335.549
337.642
339.673
341.646
343.559
345.41
347.196
348.908
350.541
352.084
353.527
354.857
356.063
357.131
358.047
358.795
359.363
359.735
359.898
359.838
359.542
358.999
358.198
357.129
355.785
354.16
352.246
350.041
347.542
344.745
341.647
338.245
334.533
330.499
326.124
321.374
316.19
310.455
303.932
303.123
308.041
312.214
315.906
319.258
322.356
325.258
328.003
330.621
333.134
335.558
337.905
340.181
342.394
344.543
346.628
348.648
350.595
352.465
354.247
355.932
357.508
358.961
360.279
361.446
362.447
363.266
363.887
364.295
364.474
364.41
364.09
363.499
362.627
361.464
360.001
358.231
356.148
353.749
351.03
347.989
344.625
340.934
336.911
332.548
327.826
322.715
317.156
311.039
304.128
303.224
308.343
312.715
316.605
320.153
323.445
326.537
329.471
332.275
334.97
337.574
340.098
342.55
344.933
347.25
349.5
351.679
353.782
355.801
357.727
359.547
361.251
362.822
364.247
365.509
366.591
367.478
368.151
368.593
368.789
368.722
368.378
367.742
366.803
365.55
363.974
362.066
359.823
357.239
354.313
351.042
347.425
343.46
339.145
334.471
329.423
323.972
318.062
311.585
304.31
303.316
308.619
313.175
317.247
320.977
324.448
327.718
330.827
333.804
336.671
339.444
342.134
344.75
347.296
349.772
352.177
354.508
356.758
358.919
360.981
362.93
364.754
366.438
367.965
369.317
370.478
371.429
372.151
372.627
372.838
372.769
372.403
371.725
370.723
369.385
367.701
365.665
363.27
360.512
357.39
353.901
350.046
345.825
341.234
336.269
330.915
325.146
318.908
312.096
304.481
303.401
308.873
313.597
317.837
321.732
325.369
328.803
332.074
335.212
338.239
341.17
344.016
346.786
349.483
352.109
354.66
357.134
359.523
361.817
364.007
366.078
368.017
369.806
371.429
372.868
374.102
375.114
375.883
376.391
376.618
376.546
376.16
375.443
374.381
372.964
371.18
369.022
366.485
363.564
360.258
356.566
352.489
348.028
343.18
337.943
332.303
326.238
319.695
312.57
304.64
303.478
309.104
313.982
318.374
322.423
326.211
329.795
333.216
336.503
339.677
342.754
345.746
348.659
351.497
354.261
356.949
359.556
362.074
364.494
366.803
368.989
371.034
372.923
374.636
376.155
377.459
378.528
379.341
379.878
380.12
380.047
379.642
378.888
377.772
376.281
374.404
372.133
369.464
366.392
362.915
359.034
354.751
350.066
344.98
339.491
333.588
327.247
320.422
313.009
304.786
303.547
309.313
314.33
318.862
323.049
326.975
330.697
334.255
337.678
340.987
344.198
347.323
350.367
353.336
356.228
359.042
361.772
364.41
366.945
369.366
371.657
373.801
375.782
377.579
379.172
380.541
381.663
382.517
383.082
383.338
383.264
382.841
382.055
380.888
379.329
377.366
374.992
372.201
368.989
365.355
361.301
356.827
351.937
346.633
340.912
334.766
328.174
321.089
313.411
304.921
303.61
309.501
314.644
319.301
323.613
327.663
331.51
335.191
338.737
342.169
345.502
348.748
351.912
354.999
358.009
360.937
363.78
366.527
369.168
371.69
374.078
376.313
378.378
380.252
381.914
383.341
384.512
385.404
385.995
386.264
386.189
385.751
384.934
383.722
382.101
380.06
377.591
374.689
371.35
367.573
363.361
358.714
353.638
348.134
342.202
335.836
329.015
321.694
313.777
305.043
303.666
309.669
314.923
319.691
324.114
328.276
332.233
336.025
339.681
343.223
346.665
350.019
353.291
356.485
359.6
362.632
365.576
368.422
371.158
373.772
376.247
378.564
380.705
382.649
384.372
385.853
387.069
387.995
388.609
388.89
388.814
388.363
387.519
386.266
384.589
382.478
379.924
376.923
373.469
369.564
365.209
360.407
355.163
349.48
343.36
336.795
329.769
322.238
314.104
305.152
303.715
309.815
315.167
320.033
324.553
328.812
332.867
336.756
340.509
344.148
347.686
351.136
354.504
357.792
360.999
364.123
367.157
370.09
372.911
375.606
378.159
380.549
382.758
384.763
386.541
388.07
389.325
390.282
390.917
391.208
391.132
390.669
389.801
388.512
386.786
384.613
381.984
378.894
375.34
371.321
366.84
361.902
356.509
350.669
344.381
337.642
330.435
322.717
314.393
305.249
303.757
309.941
315.376
320.326
324.93
329.273
333.411
337.384
341.221
344.943
348.565
352.098
355.547
358.917
362.205
365.408
368.519
371.529
374.423
377.189
379.808
382.262
384.529
386.588
388.414
389.984
391.273
392.257
392.91
393.211
393.135
392.662
391.773
390.452
388.684
386.458
383.764
380.598
376.956
372.839
368.25
363.192
357.672
351.695
345.263
338.373
331.01
323.131
314.643
305.332
303.792
310.046
315.551
320.571
325.245
329.658
333.866
337.909
341.816
345.608
349.299
352.901
356.42
359.858
363.214
366.484
369.661
372.733
375.69
378.515
381.191
383.698
386.014
388.118
389.985
391.59
392.908
393.914
394.583
394.891
394.815
394.334
393.428
392.081
390.277
388.006
385.258
382.028
378.313
374.113
369.433
364.276
358.648
352.556
346.003
338.987
331.492
323.478
314.852
305.402
303.82
310.13
315.691
320.767
325.497
329.966
334.231
338.33
342.293
346.141
349.889
353.547
357.121
360.614
364.024
367.348
370.577
373.702
376.708
379.581
382.302
384.852
387.209
389.349
391.248
392.882
394.223
395.247
395.929
396.243
396.167
395.68
394.76
393.392
391.56
389.252
386.46
383.178
379.404
375.139
370.384
365.147
359.433
353.249
346.599
339.481
331.88
323.757
315.021
305.459
303.841
310.193
315.796
320.914
325.687
330.198
334.505
338.646
342.651
346.541
350.331
354.032
357.648
361.182
364.634
367.998
371.267
374.43
377.474
380.383
383.139
385.722
388.109
390.276
392.2
393.855
395.214
396.252
396.943
397.262
397.186
396.694
395.764
394.379
392.526
390.191
387.366
384.045
380.227
375.911
371.101
365.804
360.025
353.771
347.048
339.852
332.172
323.967
315.148
305.501
303.855
310.235
315.866
321.012
325.813
330.352
334.687
338.857
342.891
346.809
350.627
354.356
358
361.562
365.041
368.433
371.728
374.917
377.987
380.92
383.699
386.303
388.71
390.896
392.837
394.505
395.876
396.924
397.621
397.944
397.868
397.372
396.435
395.04
393.172
390.819
387.972
384.625
380.777
376.428
371.581
366.243
360.42
354.12
347.348
340.101
332.368
324.108
315.233
305.53
303.862
310.256
315.901
321.062
325.876
330.43
334.779
338.963
343.011
346.943
350.775
354.518
358.176
361.752
365.245
368.65
371.959
375.161
378.243
381.189
383.979
386.594
389.011
391.207
393.155
394.831
396.208
397.26
397.961
398.285
398.209
397.711
396.771
395.371
393.496
391.133
388.275
384.916
381.052
376.687
371.821
366.463
360.619
354.295
347.498
340.226
332.465
324.179
315.275
305.544
303.862
310.256
315.901
321.062
325.876
330.43
334.779
338.963
343.011
346.943
350.775
354.518
358.176
361.752
365.245
368.65
371.959
375.161
378.243
381.189
383.979
386.594
389.011
391.207
393.155
394.831
396.208
397.26
397.961
398.285
398.209
397.711
396.771
395.371
393.496
391.133
388.275
384.916
381.052
376.687
371.821
366.463
360.619
354.295
347.498
340.226
332.465
324.179
315.275
305.544
303.855
310.235
315.866
321.012
325.813
330.352
334.687
338.857
342.891
346.809
350.627
354.356
358
361.562
365.041
368.433
371.728
374.917
377.987
380.92
383.699
386.303
388.71
390.896
392.837
394.505
395.876
396.924
397.621
397.944
397.868
397.372
396.435
395.04
393.172
390.819
387.972
384.625
380.777
376.428
371.581
366.243
360.42
354.12
347.348
340.101
332.367
324.108
315.233
305.53
303.841
310.193
315.796
320.914
325.687
330.198
334.505
338.646
342.651
346.542
350.331
354.032
357.648
361.182
364.634
367.998
371.267
374.43
377.474
380.384
383.139
385.722
388.109
390.276
392.2
393.855
395.214
396.252
396.943
397.262
397.186
396.694
395.764
394.379
392.526
390.191
387.366
384.045
380.227
375.911
371.101
365.804
360.025
353.771
347.048
339.852
332.172
323.967
315.148
305.501
303.82
310.13
315.691
320.767
325.497
329.966
334.231
338.33
342.293
346.141
349.889
353.547
357.121
360.614
364.025
367.348
370.577
373.702
376.708
379.581
382.302
384.852
387.209
389.349
391.249
392.882
394.223
395.247
395.929
396.243
396.168
395.68
394.76
393.392
391.56
389.252
386.46
383.178
379.404
375.138
370.384
365.147
359.433
353.249
346.599
339.481
331.88
323.757
315.021
305.459
303.792
310.046
315.551
320.571
325.245
329.658
333.866
337.909
341.816
345.608
349.299
352.901
356.42
359.858
363.214
366.484
369.661
372.734
375.69
378.515
381.191
383.698
386.015
388.118
389.985
391.59
392.908
393.914
394.583
394.891
394.815
394.334
393.428
392.081
390.277
388.006
385.258
382.028
378.313
374.113
369.433
364.275
358.648
352.556
346.003
338.987
331.492
323.478
314.852
305.402
303.757
309.941
315.376
320.326
324.93
329.273
333.411
337.385
341.221
344.943
348.565
352.098
355.547
358.917
362.205
365.408
368.519
371.529
374.423
377.189
379.808
382.262
384.529
386.588
388.414
389.984
391.273
392.257
392.911
393.211
393.135
392.662
391.773
390.452
388.684
386.458
383.764
380.598
376.956
372.839
368.25
363.192
357.672
351.695
345.263
338.373
331.01
323.131
314.643
305.332
303.715
309.815
315.167
320.033
324.553
328.812
332.867
336.756
340.509
344.148
347.687
351.136
354.504
357.792
361
364.123
367.157
370.09
372.912
375.607
378.159
380.549
382.758
384.763
386.541
388.07
389.325
390.282
390.917
391.208
391.132
390.669
389.801
388.512
386.786
384.613
381.984
378.894
375.34
371.321
366.84
361.901
356.509
350.669
344.381
337.642
330.435
322.717
314.393
305.249
303.666
309.669
314.923
319.691
324.114
328.276
332.233
336.025
339.681
343.223
346.665
350.019
353.292
356.485
359.6
362.632
365.576
368.422
371.159
373.772
376.247
378.564
380.705
382.649
384.372
385.853
387.069
387.995
388.61
388.89
388.814
388.363
387.519
386.266
384.589
382.478
379.924
376.922
373.469
369.564
365.209
360.407
355.163
349.48
343.36
336.795
329.769
322.238
314.104
305.152
303.61
309.501
314.644
319.301
323.613
327.663
331.51
335.191
338.737
342.169
345.502
348.748
351.912
354.999
358.009
360.937
363.78
366.527
369.168
371.69
374.078
376.313
378.378
380.252
381.914
383.341
384.512
385.405
385.995
386.264
386.189
385.752
384.934
383.722
382.101
380.06
377.591
374.689
371.35
367.573
363.361
358.714
353.638
348.134
342.202
335.836
329.015
321.694
313.777
305.043
303.547
309.313
314.33
318.862
323.049
326.975
330.697
334.255
337.678
340.987
344.199
347.323
350.368
353.336
356.228
359.042
361.772
364.41
366.946
369.366
371.657
373.801
375.782
377.579
379.172
380.541
381.663
382.517
383.082
383.338
383.264
382.842
382.055
380.888
379.329
377.366
374.992
372.201
368.989
365.355
361.301
356.827
351.937
346.633
340.911
334.766
328.174
321.089
313.411
304.921
303.478
309.104
313.982
318.375
322.423
326.211
329.795
333.217
336.503
339.677
342.754
345.746
348.659
351.497
354.261
356.949
359.556
362.074
364.494
366.803
368.989
371.034
372.923
374.636
376.155
377.459
378.528
379.341
379.878
380.12
380.047
379.642
378.888
377.772
376.281
374.404
372.133
369.464
366.392
362.915
359.034
354.751
350.066
344.98
339.491
333.587
327.247
320.422
313.009
304.786
303.401
308.873
313.597
317.837
321.732
325.369
328.803
332.074
335.212
338.239
341.17
344.016
346.786
349.483
352.109
354.66
357.134
359.523
361.818
364.007
366.079
368.017
369.807
371.43
372.868
374.103
375.114
375.883
376.391
376.618
376.546
376.16
375.443
374.381
372.964
371.18
369.022
366.485
363.564
360.258
356.566
352.489
348.028
343.18
337.943
332.303
326.238
319.694
312.57
304.64
303.316
308.619
313.175
317.248
320.977
324.448
327.718
330.827
333.804
336.671
339.444
342.135
344.75
347.296
349.772
352.177
354.508
356.758
358.919
360.981
362.93
364.755
366.438
367.965
369.318
370.478
371.429
372.151
372.627
372.839
372.769
372.403
371.725
370.723
369.385
367.701
365.665
363.27
360.512
357.389
353.901
350.046
345.825
341.234
336.269
330.915
325.145
318.908
312.096
304.481
303.224
308.343
312.715
316.605
320.153
323.445
326.538
329.471
332.275
334.971
337.575
340.098
342.55
344.933
347.25
349.5
351.68
353.783
355.802
357.727
359.548
361.251
362.822
364.247
365.509
366.592
367.478
368.151
368.593
368.789
368.722
368.378
367.742
366.803
365.55
363.974
362.066
359.823
357.239
354.313
351.041
347.425
343.46
339.145
334.471
329.423
323.971
318.062
311.585
304.31
303.123
308.041
312.214
315.906
319.258
322.356
325.258
328.003
330.621
333.134
335.558
337.905
340.182
342.394
344.543
346.629
348.648
350.596
352.465
354.247
355.932
357.508
358.962
360.279
361.446
362.447
363.266
363.887
364.295
364.474
364.411
364.09
363.499
362.627
361.464
360.001
358.231
356.148
353.749
351.03
347.989
344.625
340.934
336.911
332.548
327.826
322.715
317.156
311.038
304.128
303.014
307.713
311.669
315.146
318.286
321.176
323.873
326.417
328.838
331.157
333.39
335.549
337.642
339.673
341.646
343.559
345.411
347.196
348.909
350.541
352.084
353.527
354.858
356.064
357.131
358.047
358.795
359.363
359.735
359.898
359.838
359.542
358.999
358.198
357.129
355.785
354.16
352.246
350.041
347.542
344.745
341.647
338.245
334.533
330.499
326.124
321.374
316.19
310.455
303.932
302.894
307.355
311.075
314.319
317.231
319.897
322.374
324.704
326.915
329.029
331.061
333.023
334.923
336.766
338.554
340.287
341.963
343.579
345.129
346.606
348.002
349.306
350.509
351.599
352.564
353.391
354.067
354.58
354.915
355.061
355.005
354.735
354.242
353.515
352.546
351.327
349.853
348.117
346.116
343.846
341.304
338.487
335.389
332.004
328.318
324.311
319.946
315.159
309.832
303.724
302.763
306.963
310.424
313.415
316.08
318.506
320.75
322.852
324.841
326.739
328.56
330.316
332.015
333.661
335.257
336.803
338.299
339.739
341.12
342.436
343.679
344.841
345.912
346.883
347.741
348.477
349.079
349.534
349.832
349.96
349.909
349.668
349.227
348.577
347.712
346.623
345.306
343.755
341.966
339.936
337.661
335.138
332.36
329.318
325.999
322.38
318.422
314.058
309.166
303.501
302.618
306.529
309.707
312.422
314.82
316.987
318.982
320.843
322.599
324.27
325.871
327.413
328.903
330.345
331.743
333.096
334.404
335.663
336.871
338.021
339.107
340.122
341.058
341.906
342.655
343.298
343.822
344.22
344.479
344.59
344.545
344.333
343.946
343.377
342.618
341.665
340.51
339.151
337.583
335.802
333.805
331.588
329.143
326.462
323.529
320.32
316.793
312.879
308.453
303.262
302.455
306.044
308.907
311.32
313.428
315.318
317.047
318.654
320.165
321.6
322.972
324.291
325.565
326.797
327.99
329.145
330.26
331.334
332.364
333.344
334.269
335.134
335.931
336.653
337.291
337.838
338.285
338.623
338.843
338.937
338.897
338.716
338.385
337.899
337.251
336.437
335.451
334.289
332.949
331.426
329.717
327.817
325.72
323.415
320.887
318.11
315.041
311.608
307.681
303.004
302.268
305.49
308
310.078
311.87
313.463
314.91
316.249
317.504
318.693
319.828
320.918
321.969
322.986
323.969
324.92
325.839
326.724
327.571
328.378
329.14
329.851
330.507
331.101
331.626
332.075
332.443
332.72
332.901
332.978
332.945
332.795
332.522
332.121
331.587
330.915
330.102
329.144
328.037
326.78
325.368
323.797
322.059
320.146
318.042
315.72
313.138
310.221
306.836
302.72
302.047
304.839
306.945
308.649
310.096
311.369
312.519
313.577
314.566
315.5
316.391
317.246
318.069
318.865
319.634
320.379
321.097
321.789
322.451
323.081
323.676
324.232
324.745
325.208
325.619
325.97
326.256
326.473
326.614
326.674
326.647
326.53
326.316
326.002
325.584
325.058
324.422
323.671
322.805
321.82
320.712
319.479
318.114
316.607
314.945
313.102
311.038
308.679
305.89
302.4
301.77
304.036
305.669
306.953
308.023
308.954
309.79
310.556
311.269
311.943
312.583
313.198
313.789
314.36
314.912
315.446
315.961
316.457
316.932
317.384
317.811
318.209
318.576
318.908
319.202
319.454
319.659
319.814
319.915
319.958
319.939
319.854
319.701
319.475
319.175
318.798
318.341
317.802
317.18
316.472
315.676
314.789
313.806
312.719
311.516
310.177
308.664
306.912
304.789
302.023
301.385
302.971
304.038
304.846
305.507
306.077
306.584
307.048
307.479
307.886
308.272
308.642
308.998
309.342
309.674
309.996
310.306
310.604
310.889
311.161
311.418
311.657
311.878
312.078
312.255
312.406
312.529
312.622
312.683
312.709
312.697
312.646
312.554
312.418
312.237
312.01
311.735
311.411
311.036
310.61
310.13
309.595
309.002
308.345
307.617
306.802
305.875
304.785
303.424
301.536
300.738
301.385
301.771
302.05
302.275
302.467
302.637
302.792
302.937
303.073
303.202
303.325
303.444
303.559
303.67
303.777
303.881
303.98
304.076
304.166
304.252
304.332
304.405
304.472
304.531
304.582
304.623
304.654
304.674
304.683
304.679
304.662
304.631
304.585
304.525
304.449
304.358
304.249
304.124
303.982
303.822
303.643
303.444
303.225
302.98
302.707
302.394
302.02
301.536
300.788
300.299
300.737
301.063
301.32
301.535
301.723
301.891
302.045
302.189
302.324
302.453
302.577
302.696
302.811
302.922
303.029
303.133
303.233
303.328
303.419
303.505
303.585
303.659
303.726
303.785
303.836
303.877
303.908
303.929
303.937
303.933
303.916
303.885
303.84
303.779
303.703
303.611
303.503
303.378
303.235
303.075
302.897
302.699
302.48
302.238
301.969
301.664
301.313
300.889
300.349
300.737
301.923
302.85
303.602
304.237
304.794
305.295
305.755
306.185
306.59
306.976
307.346
307.703
308.047
308.38
308.702
309.013
309.312
309.598
309.871
310.128
310.368
310.589
310.79
310.967
311.118
311.242
311.336
311.396
311.422
311.41
311.359
311.267
311.131
310.95
310.722
310.447
310.122
309.747
309.321
308.841
308.307
307.715
307.061
306.338
305.535
304.633
303.599
302.377
300.889
301.062
302.848
304.298
305.502
306.535
307.447
308.272
309.033
309.743
310.415
311.056
311.67
312.262
312.834
313.387
313.922
314.439
314.936
315.412
315.865
316.292
316.692
317.06
317.393
317.688
317.94
318.146
318.301
318.402
318.445
318.426
318.342
318.188
317.962
317.661
317.283
316.826
316.286
315.664
314.955
314.159
313.273
312.292
311.209
310.016
308.695
307.218
305.543
303.603
301.315
301.317
303.594
305.494
307.106
308.507
309.756
310.893
311.944
312.929
313.862
314.752
315.607
316.432
317.228
317.999
318.745
319.465
320.158
320.822
321.454
322.051
322.608
323.122
323.587
323.998
324.35
324.638
324.855
324.996
325.056
325.03
324.912
324.698
324.383
323.964
323.438
322.8
322.049
321.181
320.195
319.088
317.856
316.493
314.993
313.342
311.522
309.501
307.233
304.648
301.671
301.529
304.22
306.512
308.489
310.23
311.795
313.228
314.559
315.809
316.996
318.131
319.221
320.274
321.291
322.277
323.23
324.151
325.038
325.887
326.696
327.46
328.173
328.83
329.426
329.952
330.403
330.771
331.05
331.231
331.308
331.275
331.125
330.851
330.449
329.914
329.241
328.427
327.467
326.36
325.101
323.689
322.119
320.384
318.478
316.387
314.091
311.557
308.739
305.57
301.981
301.711
304.761
307.4
309.707
311.76
313.621
315.334
316.932
318.438
319.87
321.242
322.562
323.837
325.071
326.267
327.424
328.542
329.619
330.65
331.633
332.561
333.428
334.227
334.951
335.591
336.139
336.587
336.926
337.147
337.242
337.202
337.02
336.689
336.201
335.552
334.736
333.749
332.585
331.243
329.719
328.01
326.111
324.016
321.719
319.205
316.455
313.438
310.108
306.403
302.261
301.871
305.24
308.189
310.796
313.137
315.274
317.251
319.103
320.854
322.523
324.124
325.666
327.158
328.602
330.003
331.359
332.67
333.932
335.143
336.296
337.385
338.403
339.341
340.191
340.942
341.586
342.113
342.511
342.771
342.883
342.837
342.625
342.237
341.667
340.907
339.952
338.795
337.434
335.864
334.081
332.083
329.866
327.425
324.751
321.833
318.652
315.179
311.37
307.168
302.518
302.015
305.67
308.901
311.782
314.389
316.783
319.009
321.101
323.085
324.981
326.802
328.56
330.261
331.91
333.509
335.059
336.557
338.001
339.386
340.705
341.951
343.116
344.19
345.163
346.024
346.762
347.365
347.822
348.12
348.249
348.198
347.957
347.515
346.864
345.996
344.906
343.586
342.032
340.241
338.209
335.933
333.41
330.635
327.601
324.297
320.706
316.802
312.545
307.879
302.756
302.146
306.06
309.548
312.681
315.535
318.169
320.628
322.948
325.154
327.266
329.298
331.262
333.165
335.011
336.802
338.539
340.22
341.839
343.393
344.874
346.273
347.581
348.787
349.88
350.848
351.677
352.355
352.868
353.205
353.351
353.295
353.025
352.531
351.803
350.832
349.611
348.133
346.394
344.39
342.118
339.575
336.757
333.662
330.284
326.613
322.634
318.323
313.643
308.544
302.978
302.265
306.417
310.141
313.507
316.588
319.446
322.125
324.659
327.074
329.392
331.626
333.787
335.883
337.918
339.894
341.812
343.668
345.457
347.174
348.811
350.358
351.804
353.139
354.348
355.418
356.336
357.087
357.656
358.03
358.193
358.133
357.836
357.292
356.489
355.419
354.072
352.443
350.527
348.319
345.816
343.017
339.918
336.519
332.813
328.793
324.447
319.752
314.674
309.166
303.186
302.375
306.745
310.685
314.266
317.559
320.625
323.509
326.244
328.858
331.37
333.795
336.143
338.424
340.64
342.793
344.884
346.907
348.86
350.734
352.521
354.21
355.79
357.248
358.569
359.739
360.742
361.563
362.186
362.596
362.776
362.712
362.39
361.798
360.925
359.759
358.293
356.519
354.433
352.03
349.308
346.265
342.899
339.21
335.193
330.844
326.15
321.093
315.641
309.75
303.382
302.475
307.046
311.186
314.965
318.454
321.714
324.788
327.713
330.512
333.207
335.812
338.339
340.794
343.182
345.504
347.759
349.943
352.051
354.075
356.006
357.831
359.539
361.114
362.543
363.808
364.894
365.783
366.457
366.901
367.098
367.031
366.686
366.049
365.108
363.852
362.272
360.361
358.114
355.526
352.596
349.321
345.703
341.74
337.43
332.769
327.749
322.351
316.548
310.297
303.565
302.567
307.323
311.647
315.608
319.278
322.717
325.97
329.069
332.043
334.909
337.684
340.378
342.998
345.548
348.029
350.44
352.777
355.032
357.199
359.265
361.22
363.049
364.737
366.268
367.624
368.788
369.741
370.465
370.943
371.155
371.085
370.718
370.039
369.035
367.694
366.007
363.967
361.567
358.805
355.678
352.186
348.329
344.108
339.523
334.57
329.243
323.527
317.395
310.809
303.735
302.652
307.577
312.069
316.197
320.035
323.64
327.056
330.319
333.453
336.48
339.413
342.263
345.037
347.739
350.37
352.928
355.407
357.802
360.102
362.298
364.374
366.318
368.112
369.739
371.182
372.42
373.434
374.205
374.714
374.942
374.87
374.483
373.765
372.701
371.28
369.493
367.331
364.789
361.863
358.553
354.857
350.777
346.315
341.472
336.247
330.635
324.621
318.183
311.284
303.894
302.729
307.808
312.454
316.736
320.726
324.483
328.05
331.463
334.746
337.921
341
343.995
346.913
349.757
352.527
355.221
357.834
360.358
362.784
365.1
367.291
369.342
371.235
372.953
374.476
375.783
376.855
377.671
378.209
378.452
378.379
377.973
377.218
376.099
374.605
372.724
370.449
367.774
364.697
361.215
357.33
353.043
348.358
343.276
337.799
331.921
325.633
318.912
311.724
304.041
302.799
308.018
312.804
317.225
321.354
325.249
328.954
332.504
335.924
339.233
342.447
345.576
348.625
351.6
354.498
357.319
360.055
362.699
365.241
367.668
369.965
372.115
374.101
375.903
377.5
378.872
379.998
380.854
381.421
381.677
381.603
381.18
380.392
379.223
377.66
375.693
373.314
370.518
367.3
363.661
359.601
355.124
350.234
344.932
339.223
333.102
326.561
319.58
312.127
304.176
302.862
308.206
313.118
317.664
321.919
325.938
329.768
333.442
336.985
340.418
343.754
347.004
350.174
353.267
356.283
359.218
362.067
364.821
367.469
369.998
372.391
374.633
376.703
378.582
380.248
381.68
382.854
383.748
384.341
384.61
384.535
384.097
383.278
382.063
380.439
378.394
375.92
373.012
369.667
365.884
361.666
357.016
351.938
346.437
340.516
334.175
327.404
320.187
312.493
304.299
302.918
308.374
313.397
318.055
322.421
326.552
330.493
334.277
337.931
341.474
344.919
348.278
351.556
354.756
357.877
360.917
363.867
366.721
369.464
372.085
374.566
376.889
379.036
380.985
382.713
384.198
385.417
386.346
386.962
387.243
387.167
386.716
385.87
384.613
382.933
380.818
378.259
375.251
371.791
367.88
363.519
358.713
353.467
347.787
341.677
335.137
328.161
320.732
312.822
304.408
302.967
308.521
313.642
318.398
322.861
327.09
331.128
335.01
338.761
342.401
345.943
349.398
352.771
356.066
359.281
362.412
365.452
368.393
371.222
373.924
376.482
378.879
381.093
383.104
384.887
386.42
387.678
388.638
389.275
389.567
389.491
389.027
388.158
386.865
385.135
382.958
380.324
377.227
373.667
369.641
365.155
360.211
354.817
348.978
342.7
335.985
328.828
321.212
313.111
304.505
303.009
308.647
313.852
318.692
323.239
327.552
331.674
335.64
339.475
343.198
346.823
350.361
353.817
357.194
360.489
363.7
366.818
369.835
372.737
375.51
378.136
380.596
382.869
384.934
386.765
388.339
389.632
390.618
391.274
391.575
391.499
391.025
390.135
388.811
387.039
384.807
382.108
378.935
375.287
371.163
366.568
361.505
355.982
350.007
343.585
336.719
329.404
321.627
313.362
304.589
303.044
308.752
314.027
318.937
323.554
327.937
332.13
336.166
340.071
343.864
347.56
351.167
354.692
358.137
361.501
364.778
367.962
371.043
374.007
376.84
379.522
382.036
384.359
386.468
388.34
389.949
391.271
392.279
392.95
393.259
393.184
392.701
391.794
390.443
388.636
386.359
383.606
380.369
376.647
372.441
367.753
362.591
356.961
350.87
344.327
337.334
329.887
321.975
313.572
304.659
303.072
308.836
314.167
319.134
323.807
328.246
332.495
336.588
340.549
344.399
348.15
351.814
355.395
358.895
362.313
365.645
368.882
372.014
375.028
377.908
380.637
383.193
385.556
387.702
389.606
391.244
392.589
393.616
394.3
394.615
394.539
394.05
393.129
391.757
389.921
387.608
384.811
381.522
377.741
373.468
368.707
363.465
357.748
351.565
344.924
337.828
330.276
322.255
313.74
304.715
303.093
308.899
314.273
319.281
323.997
328.479
332.77
336.905
340.908
344.8
348.594
352.3
355.923
359.465
362.924
366.296
369.573
372.744
375.796
378.713
381.476
384.065
386.458
388.632
390.561
392.22
393.582
394.623
395.316
395.637
395.561
395.067
394.135
392.748
390.89
388.55
385.719
382.391
378.566
374.243
369.426
364.123
358.341
352.088
345.374
338.201
330.569
322.466
313.868
304.758
303.107
308.941
314.343
319.38
324.124
328.634
332.953
337.116
341.148
345.069
348.891
352.625
356.276
359.846
363.333
366.732
370.035
373.233
376.31
379.251
382.037
384.648
387.061
389.253
391.199
392.872
394.247
395.297
395.996
396.32
396.244
395.747
394.808
393.41
391.538
389.179
386.326
382.973
379.117
374.761
369.907