/*--------------------------------*- C++ -*----------------------------------*\
| =========                 |                                                 |
| \\      /  F ield         | OpenFOAM: The Open Source CFD Toolbox           |
|  \\    /   O peration     | Version:  5.x                                   |
|   \\  /    A nd           | Web:      www.OpenFOAM.org                      |
|    \\/     M anipulation  |                                                 |
\*---------------------------------------------------------------------------*/
FoamFile
{
    version     2.0;
    format      ascii;
    class       volScalarField;
    location    "0.7";
    object      gradTy;
}
// * * * * * * * * * * * * * * * * * * * * * * * * * * * * * * * * * * * * * //

dimensions      [0 -1 0 1 0 0 0];

internalField   nonuniform List<scalar> 
25000
(
5217.65
10627.6
14094.8
16655.7
18727.2
20506.4
22100.1
23572.3
24964.5
26304.8
27613
28903.4
30185.5
31466
32748.4
34034
35322
36609.3
37891.4
39161.6
40411.9
41632.7
42813
43940.4
45001.7
45982.6
46868
47642.4
48290
48794.8
49141.1
49313.7
49297.9
49080.1
48647.9
47989.9
47096.6
45959.6
44572.2
42928.7
41023.9
38852.5
36407.2
33675.9
30637
27249.2
23431.5
19014.7
13611.8
6217.8
2494.83
6369.71
9322.36
11677.6
13652.6
15380.3
16943.5
18396.1
19774.9
21105.6
22406.8
23691.6
24969.3
26246.2
27525.7
28808.8
30094.7
31380.2
32660.6
33929.5
35178.6
36398.3
37577.6
38704.3
39765
40745.4
41630.5
42404.8
43052.5
43557.5
43904.3
44077.7
44062.9
43846.5
43416
42760.2
41869.7
40736.2
39353.3
37715.4
35818.1
33656.6
31225.2
28514.1
25506.3
22170.8
18450.3
14240
9352.58
3494.53
1572.27
4418.03
6854.99
8945.04
10774.8
12417.1
13926.6
15343.5
16697.3
18009.8
19297.2
20571.2
21840.4
23110.2
24383.8
25661.9
26943.4
28225.1
29502.3
30768.2
32014.7
33232.2
34409.6
35534.6
36594
37573.3
38457.8
39231.7
39879.3
40384.9
40732.6
40907.3
40894.6
40680.8
40253.8
39602.4
38717.4
37590.9
36216.7
34590
32707.1
30564.8
28159.4
25485.4
22532.8
19284.3
15710.9
11767.7
7397.88
2570.95
1164.25
3392.74
5431.76
7274.95
8950.02
10492.3
11934.8
13304.9
14624.9
15912
17179.8
18438.3
19694.8
20954.1
22218.8
23489.3
24764.1
26039.9
27311.8
28573.1
29815.5
31029.3
32203.4
33325.7
34382.7
35360.2
36243.3
37016.5
37663.9
38169.9
38518.8
38695.5
38685.6
38475.8
38053.9
37409.1
36532.3
35416.1
34054.8
32444.4
30582.2
28466.8
26097.3
23472.4
20589.5
17444
14028.4
10335.4
6367.14
2161.11
941.671
2783.84
4531.81
6168.45
7699.35
9140.42
10510.4
11827.5
13107.5
14363.8
15607.2
16845.9
18086.1
19331.5
20584.2
21844.3
23109.8
24377.4
25641.9
26896.4
28132.7
29341
30510.3
31628.3
32681.7
33656.2
34537
35308.7
35955.4
36461.6
36811.8
36990.9
36984.7
36780
36364.7
35728.6
34862.6
33759.9
32415.4
30825.9
28989.9
26907.9
24581.5
22013.5
19207.4
16167.9
12901.8
9420.86
5749.37
1935.56
801.445
2384.63
3918
5387.22
6791.09
8136.42
9433.88
10695.2
11931.6
13153.2
14368.2
15583.4
16803.6
18031.8
19269.5
20516
21769.5
23026.1
24280.5
25525.8
26753.6
27954.3
29116.6
30228.4
31276.3
32246.3
33123.5
33892.5
34537.8
35043.7
35394.9
35576.6
35574.7
35376.1
34969.1
34343.5
33491
32404.9
31080.9
29516.6
27711.8
25668.4
23390.5
20884
18157.1
15220.8
12089.6
8784.61
5336.55
1790.77
704.038
2101.83
3472.3
4805.72
6099.73
7357.34
8584.85
9790.01
10980.8
12164.8
13348.3
14536.6
15733.4
16941
18160.2
19390
20628.2
21870.6
23111.9
24345
25561.5
26751.6
27904.3
29007.4
30047.7
31011.1
31882.8
32647.7
33290.2
33795
34146.8
34331
34333.7
34142.2
33744.8
33131.9
32295.3
31229
29929.1
28394.2
26625
24624.9
22399.6
19957.7
17310.5
14472.6
11463
8306.15
5033.89
1686.71
631.414
1888.73
3131.04
4352.5
5551.36
6729.32
7890.47
9040.2
10184.3
11328.5
12477.7
13635.9
14806
15989.5
17186.6
18396.1
19615.2
20839.9
22064.4
23281.8
24483.5
25659.8
26799.7
27891
28920.7
29874.8
30738.8
31497.5
32135.7
32638.1
32989.7
33176.1
33183.7
32999.9
32613.6
32015.2
31197.1
30153.7
28881.7
27380.2
25651
23698.5
21529.9
19155.2
16587.9
13844.7
10946.6
7919
4792.95
1604.76
574.159
1719.63
2857.33
3984.22
5099.59
6204.89
7303.19
8398.52
9495.32
10597.9
11710.2
12835.2
13975
15130.6
16301.8
17486.8
18682.9
19885.6
21089.3
22286.7
23469.5
24628
25751.2
26827.1
27842.8
28784.5
29637.7
30387.7
31019.4
31517.7
31868.1
32056.1
32068.6
31893.3
31519.3
30937.4
30140.5
29123.2
27882.9
26419.2
24734.6
22834.2
20726.3
18422
15935.7
13285.5
10492.9
7583.31
4586.27
1534.9
526.835
1579.27
2628.37
3673.11
4713.76
5751.93
6790.24
7831.99
8880.74
9939.94
11012.6
12101.2
13207
14330.8
15471.7
16627.9
17796.3
18972.4
20150.4
21323.2
22482.4
23618.4
24720.4
25776.5
26774.1
27699.5
28538.6
29276.9
29899.5
30391.8
30739.3
30928.1
30945.3
30779
30418.6
29855.3
29082.2
28094.6
26890
25468.7
23833.6
21990.4
19948
17718.1
15315.8
12759.2
10070.1
7273.29
4396.73
1471.1
486.054
1457.93
2429.33
3400.57
4372.77
5347.77
6328.09
7316.6
8316.32
9330.09
10360.4
11409
12477
13564.5
14670.5
15793
16928.6
18072.8
19219.9
20362.7
21493
22601.2
23676.9
24708.3
25683.1
26587.8
27408.8
28131.7
28742.3
29226
29568.9
29757.4
29779
29622.1
29276.6
28733.9
27987.6
27033.3
25869
24495.1
22915
21134.8
19163.5
17013.3
14699.3
12239.7
9655.61
6971.16
4212.88
1409.37
449.569
1349.13
2250.05
3153.63
4061.55
4975.95
5899.32
6834.31
7783.58
8749.57
9734.31
10739.3
11765.1
12811.6
13877.7
14961.1
16058.4
17165.1
18275.3
19382.3
20477.7
21552.4
22596
23597.2
24543.9
25423.1
26221.4
26925
27520
27992.3
28328.5
28515.4
28540.8
28393.7
28064.3
27544.5
26828.1
25911.1
24791.7
23470.8
21951.8
20241
18347.6
16283.7
14064.2
11707
9232.64
6664.09
4026.56
1346.91
415.829
1248.33
2083.39
2922.94
3769.09
4624.2
5490.75
6371.28
7268.21
8183.7
9119.47
10076.7
11055.8
12056.3
13077
14115.6
15168.6
16231.5
17298.7
18363.4
19417.6
20452.3
21457.7
22422.6
23335.4
24183.7
24954.4
25634.3
26209.9
26667.8
26994.8
27178.5
27207.2
27070.1
26758.1
26263.4
25580.1
24704.6
23635.4
22373.4
20922.2
19288.2
17480.3
15510.6
13393.5
11146.2
8788.62
6342.54
3831.81
1281.68
383.725
1152.27
1924.15
2701.66
3487.2
4283.26
5092.33
5916.86
6759.09
7620.97
8503.99
9409.09
10336.5
11285.8
12255.4
13243.1
14245.5
15258.1
16275.5
17291.1
18297.3
19285.4
20245.8
21168.1
22040.9
22852.5
23590.3
24241.7
24793.8
25233.7
25549.1
25727.9
25758.9
25632.2
25338.8
24871.5
24224.9
23395.3
22381.7
21185.1
19809
18259.7
16546
14679.3
12673.8
10545.7
8314.03
5999.37
3624.2
1212.19
352.45
1058.6
1768.5
2484.7
3209.72
3946.13
4696.39
5462.84
6247.59
7052.41
7878.63
8727.02
9597.72
10490.1
11402.7
12333.3
13278.4
14233.9
15194.6
16154
17105.1
18039.4
18948
19820.9
20647.4
21416.2
22115.5
22733.4
23257.6
23676.1
23977
24149
24181.7
24065.4
23792
23354.5
22747.9
21969.1
21016.8
19892.3
18599.1
17143
15532.7
13779
11895.2
9896.97
7801.86
5629.38
3400.51
1137.34
321.416
965.562
1613.65
2268.3
2932.1
3607.58
4297.14
5003.02
5727.18
6471.25
7236.42
8023.33
8832.02
9661.84
10511.3
11378.3
12259.5
13151
14047.8
14943.9
15832.6
16706
17555.7
18372.3
19145.8
19865.6
20520.8
21100
21591.9
21985.2
22268.8
22432.1
22465.5
22359.8
22107.6
21702.4
21139.5
20416.1
19531.1
18485.7
17283.3
15929.5
14432.3
12802
11051.1
9194.03
7247.3
5228.99
3158.54
1056.39
290.201
871.919
1457.58
2049.77
2651.04
3263.82
3890.41
4532.92
5193.17
5872.64
6572.38
7292.96
8034.36
8795.9
9576.22
10373.2
11183.8
12004.4
12830.2
13655.8
14474.8
15280.1
16063.8
16817.2
17531.1
18195.8
18801
19336.5
19791.5
20155.9
20419.3
20572
20605
20510.2
20280.4
19909.9
19394.3
18731.1
17919.3
16960
15856.6
14614.2
13240.1
11744
10137.4
8433.49
6647.54
4796.1
2896.99
968.904
258.514
776.809
1298.89
1827.24
2364.26
2912.26
3473.38
4049.56
4642.46
5253.43
5883.41
6532.87
7201.75
7889.42
8594.58
9315.25
10048.7
10791.6
11539.5
12287.5
13029.8
13760
14470.7
15154.2
15802.1
16405.5
16955.3
17441.8
17855.7
18187.4
18427.7
18567.9
18599.7
18515.8
18309.7
17976.2
17511.5
16913.1
16180.3
15314.2
14317.8
13195.7
11954.8
10603.7
9152.8
7614.2
6001.6
4329.98
2615.4
874.718
226.175
679.698
1136.73
1599.56
2070.41
2551.37
3044.41
3551.25
4073.41
4612.07
5168.05
5741.76
6333.13
6941.56
7565.87
8204.28
8854.36
9513.01
10176.4
10840.2
11499.1
12147.3
12778.5
13385.7
13961.4
14497.8
14986.6
15419.4
15787.9
16083.5
16298.1
16423.9
16453.6
16380.6
16199.3
15905.1
15494.5
14965.5
14317.4
13551.2
12669.4
11676.5
10578.4
9382.69
8098.71
6737.2
5310.26
3831.14
2314.07
773.935
193.091
580.32
970.679
1366.21
1768.87
2180.53
2602.9
3037.52
3485.68
3948.41
4426.43
4920.07
5429.26
5953.46
6491.64
7042.23
7603.13
8171.62
8744.42
9317.65
9886.85
10447
10992.6
11517.5
12015.3
12479.2
12902.1
13276.8
13595.8
13852.1
14038.4
14148.1
14174.8
14112.9
13957.6
13704.7
13351.4
12895.9
12337.7
11677.5
10917.8
10062.2
9115.8
8085.37
6978.86
5805.56
4575.89
3301.3
1994.03
666.895
159.248
478.638
800.696
1127.16
1459.7
1799.9
2149.19
2508.88
2880.06
3263.59
3660.05
4069.72
4492.53
4928.02
5375.32
5833.12
6299.64
6772.63
7249.32
7726.49
8200.41
8666.89
9121.29
9558.6
9973.41
10360
10712.6
11025.1
11291.3
11505.2
11661
11753
11776
11725.3
11596.7
11387.1
11093.9
10715.7
10252
9703.62
9072.37
8361.38
7574.99
6718.71
5799.2
4824.2
3802.37
2743.23
1656.94
554.155
124.696
374.806
627.058
882.846
1143.51
1410.3
1684.39
1966.79
2258.39
2559.84
2871.63
3193.96
3526.78
3869.71
4222.06
4582.8
4950.51
5323.4
5699.29
6075.63
6449.47
6817.49
7176.05
7521.16
7848.58
8153.82
8432.21
8678.99
8889.34
9058.49
9181.78
9254.79
9273.38
9233.86
9133
8968.19
8737.52
8439.81
8074.75
7642.89
7145.75
6585.78
5966.39
5291.94
4567.69
3799.72
2994.89
2160.66
1305.06
436.47
89.5377
269.138
450.304
634.053
821.362
1013.15
1210.26
1413.43
1623.31
1840.37
2064.96
2297.22
2537.11
2784.37
3038.49
3298.71
3564.01
3833.1
4104.39
4376.05
4645.94
4911.66
5170.57
5419.81
5656.3
5876.79
6077.92
6256.25
6408.3
6530.61
6619.84
6672.77
6686.45
6658.17
6585.64
6466.96
6300.75
6086.16
5822.98
5511.6
5153.12
4749.32
4302.65
3816.28
3293.98
2740.16
2159.75
1558.15
941.133
314.757
53.9165
162.069
271.175
381.854
494.701
610.274
729.085
851.586
978.161
1109.11
1244.62
1384.81
1529.63
1678.92
1832.38
1989.55
2149.81
2312.37
2476.29
2640.44
2803.53
2964.12
3120.6
3271.25
3414.2
3547.5
3669.1
3776.93
3868.89
3942.88
3996.88
4028.96
4037.32
4020.34
3976.61
3905.01
3804.69
3675.15
3516.25
3328.24
3111.78
2867.94
2598.22
2304.51
1989.11
1654.68
1304.19
940.902
568.311
190.069
18.0056
54.124
90.5629
127.53
165.225
203.836
243.534
284.471
326.775
370.545
415.85
462.72
511.145
561.071
612.395
664.963
718.567
772.946
827.78
882.693
937.254
990.98
1043.33
1093.74
1141.56
1186.16
1226.85
1262.93
1293.7
1318.46
1336.54
1347.28
1350.08
1344.41
1329.79
1305.85
1272.3
1228.98
1175.84
1112.96
1040.57
959.028
868.827
770.607
665.136
553.3
436.099
314.62
190.032
63.5552
-18.0039
-54.119
-90.554
-127.517
-165.207
-203.812
-243.502
-284.431
-326.726
-370.486
-415.78
-462.638
-511.051
-560.964
-612.274
-664.829
-718.421
-772.787
-827.61
-882.513
-937.066
-990.785
-1043.14
-1093.54
-1141.36
-1185.97
-1226.66
-1262.75
-1293.53
-1318.31
-1336.4
-1347.17
-1350
-1344.35
-1329.76
-1305.85
-1272.33
-1229.03
-1175.92
-1113.07
-1040.7
-959.165
-868.973
-770.756
-665.28
-553.433
-436.211
-314.706
-190.086
-63.5734
-53.9149
-162.064
-271.167
-381.842
-494.684
-610.251
-729.055
-851.548
-978.114
-1109.05
-1244.56
-1384.73
-1529.53
-1678.81
-1832.26
-1989.42
-2149.66
-2312.22
-2476.12
-2640.26
-2803.34
-2963.93
-3120.41
-3271.05
-3414
-3547.3
-3668.92
-3776.75
-3868.72
-3942.73
-3996.75
-4028.85
-4037.24
-4020.28
-3976.58
-3905.01
-3804.72
-3675.2
-3516.33
-3328.34
-3111.9
-2868.08
-2598.36
-2304.66
-1989.25
-1654.81
-1304.3
-940.986
-568.364
-190.087
-89.5364
-269.134
-450.296
-634.042
-821.346
-1013.13
-1210.23
-1413.4
-1623.26
-1840.32
-2064.89
-2297.14
-2537.03
-2784.27
-3038.38
-3298.58
-3563.87
-3832.95
-4104.24
-4375.88
-4645.76
-4911.48
-5170.39
-5419.62
-5656.11
-5876.6
-6077.74
-6256.08
-6408.14
-6530.47
-6619.71
-6672.67
-6686.36
-6658.12
-6585.61
-6466.96
-6300.77
-6086.21
-5823.05
-5511.7
-5153.24
-4749.45
-4302.79
-3816.42
-3294.12
-2740.28
-2159.85
-1558.23
-941.183
-314.774
-124.695
-374.803
-627.052
-882.837
-1143.49
-1410.29
-1684.37
-1966.76
-2258.35
-2559.8
-2871.58
-3193.9
-3526.7
-3869.62
-4221.96
-4582.69
-4950.38
-5323.26
-5699.14
-6075.47
-6449.3
-6817.32
-7175.87
-7520.99
-7848.4
-8153.64
-8432.05
-8678.83
-8889.19
-9058.35
-9181.66
-9254.69
-9273.3
-9233.8
-9132.97
-8968.19
-8737.54
-8439.86
-8074.81
-7642.98
-7145.86
-6585.9
-5966.52
-5292.07
-4567.82
-3799.84
-2994.99
-2160.74
-1305.1
-436.486
-159.247
-478.635
-800.692
-1127.15
-1459.69
-1799.88
-2149.17
-2508.86
-2880.03
-3263.55
-3660
-4069.66
-4492.46
-4927.94
-5375.23
-5833.02
-6299.53
-6772.5
-7249.19
-7726.35
-8200.26
-8666.73
-9121.13
-9558.43
-9973.24
-10359.9
-10712.5
-11024.9
-11291.1
-11505.1
-11660.9
-11752.9
-11775.9
-11725.2
-11596.7
-11387.1
-11093.9
-10715.7
-10252.1
-9703.7
-9072.46
-8361.49
-7575.11
-6718.83
-5799.32
-4824.31
-3802.46
-2743.3
-1656.98
-554.17
-193.09
-580.319
-970.677
-1366.2
-1768.87
-2180.52
-2602.89
-3037.5
-3485.65
-3948.38
-4426.39
-4920.03
-5429.2
-5953.39
-6491.56
-7042.14
-7603.03
-8171.51
-8744.3
-9317.52
-9886.72
-10446.9
-10992.4
-11517.3
-12015.1
-12479.1
-12902
-13276.6
-13595.7
-13852
-14038.3
-14148
-14174.7
-14112.9
-13957.5
-13704.7
-13351.4
-12895.9
-12337.7
-11677.6
-10917.9
-10062.2
-9115.91
-8085.48
-6978.97
-5805.65
-4575.97
-3301.36
-1994.06
-666.908
-226.175
-679.699
-1136.73
-1599.56
-2070.41
-2551.37
-3044.4
-3551.24
-4073.4
-4612.05
-5168.02
-5741.73
-6333.09
-6941.5
-7565.81
-8204.21
-8854.28
-9512.92
-10176.3
-10840.1
-11498.9
-12147.2
-12778.4
-13385.6
-13961.3
-14497.7
-14986.5
-15419.3
-15787.7
-16083.4
-16298
-16423.8
-16453.5
-16380.6
-16199.3
-15905.1
-15494.5
-14965.5
-14317.4
-13551.2
-12669.5
-11676.6
-10578.5
-9382.79
-8098.81
-6737.29
-5310.33
-3831.2
-2314.11
-773.947
-258.515
-776.811
-1298.89
-1827.24
-2364.26
-2912.26
-3473.38
-4049.55
-4642.45
-5253.42
-5883.39
-6532.84
-7201.72
-7889.38
-8594.53
-9315.2
-10048.7
-10791.5
-11539.4
-12287.4
-13029.7
-13759.9
-14470.6
-15154.1
-15802
-16405.4
-16955.1
-17441.7
-17855.6
-18187.3
-18427.7
-18567.9
-18599.7
-18515.8
-18309.7
-17976.2
-17511.5
-16913.1
-16180.3
-15314.3
-14317.8
-13195.8
-11954.9
-10603.8
-9152.87
-7614.27
-6001.66
-4330.03
-2615.43
-874.728
-290.202
-871.922
-1457.58
-2049.78
-2651.04
-3263.82
-3890.42
-4532.93
-5193.17
-5872.64
-6572.38
-7292.95
-8034.34
-8795.88
-9576.19
-10373.1
-11183.8
-12004.3
-12830.1
-13655.7
-14474.7
-15280
-16063.7
-16817.1
-17531.1
-18195.7
-18801
-19336.4
-19791.5
-20155.8
-20419.2
-20571.9
-20605
-20510.2
-20280.4
-19909.9
-19394.3
-18731.1
-17919.3
-16960.1
-15856.6
-14614.2
-13240.2
-11744.1
-10137.4
-8433.55
-6647.59
-4796.14
-2897.01
-968.912
-321.417
-965.567
-1613.66
-2268.31
-2932.12
-3607.59
-4297.15
-5003.03
-5727.19
-6471.26
-7236.42
-8023.33
-8832.02
-9661.83
-10511.3
-11378.3
-12259.5
-13151
-14047.8
-14943.9
-15832.5
-16706
-17555.7
-18372.3
-19145.7
-19865.6
-20520.7
-21100
-21591.9
-21985.1
-22268.7
-22432.1
-22465.4
-22359.8
-22107.6
-21702.4
-21139.5
-20416.1
-19531.1
-18485.7
-17283.3
-15929.5
-14432.4
-12802.1
-11051.1
-9194.07
-7247.34
-5229.02
-3158.56
-1056.4
-352.452
-1058.6
-1768.51
-2484.71
-3209.74
-3946.15
-4696.41
-5462.86
-6247.61
-7052.43
-7878.64
-8727.04
-9597.73
-10490.1
-11402.7
-12333.3
-13278.4
-14233.9
-15194.6
-16154
-17105
-18039.4
-18948
-19820.9
-20647.3
-21416.1
-22115.5
-22733.4
-23257.6
-23676
-23976.9
-24149
-24181.6
-24065.4
-23791.9
-23354.5
-22747.9
-21969.1
-21016.8
-19892.3
-18599.1
-17143.1
-15532.7
-13779
-11895.3
-9896.99
-7801.88
-5629.4
-3400.52
-1137.34
-383.727
-1152.28
-1924.16
-2701.67
-3487.22
-4283.28
-5092.36
-5916.89
-6759.12
-7620.99
-8504.01
-9409.11
-10336.6
-11285.8
-12255.5
-13243.1
-14245.5
-15258.1
-16275.5
-17291.1
-18297.3
-19285.3
-20245.8
-21168
-22040.9
-22852.5
-23590.3
-24241.7
-24793.7
-25233.7
-25549
-25727.8
-25758.9
-25632.2
-25338.8
-24871.5
-24224.8
-23395.3
-22381.7
-21185.1
-19809
-18259.7
-16546
-14679.3
-12673.8
-10545.8
-8314.04
-5999.38
-3624.2
-1212.19
-415.832
-1248.33
-2083.41
-2922.96
-3769.11
-4624.22
-5490.78
-6371.31
-7268.24
-8183.73
-9119.5
-10076.7
-11055.8
-12056.3
-13077.1
-14115.6
-15168.6
-16231.6
-17298.7
-18363.4
-19417.6
-20452.3
-21457.7
-22422.6
-23335.4
-24183.7
-24954.4
-25634.3
-26209.9
-26667.8
-26994.8
-27178.5
-27207.2
-27070.1
-26758.1
-26263.3
-25580.1
-24704.6
-23635.4
-22373.4
-20922.2
-19288.2
-17480.3
-15510.6
-13393.5
-11146.2
-8788.62
-6342.54
-3831.81
-1281.68
-449.572
-1349.13
-2250.07
-3153.65
-4061.57
-4975.98
-5899.34
-6834.34
-7783.61
-8749.61
-9734.35
-10739.3
-11765.1
-12811.7
-13877.8
-14961.1
-16058.4
-17165.1
-18275.4
-19382.3
-20477.7
-21552.4
-22596
-23597.2
-24543.9
-25423.1
-26221.4
-26925
-27520
-27992.3
-28328.5
-28515.4
-28540.8
-28393.7
-28064.3
-27544.5
-26828.1
-25911.1
-24791.7
-23470.7
-21951.7
-20241
-18347.6
-16283.7
-14064.2
-11707
-9232.63
-6664.08
-4026.55
-1346.9
-486.056
-1457.94
-2429.34
-3400.59
-4372.79
-5347.8
-6328.12
-7316.64
-8316.36
-9330.13
-10360.4
-11409
-12477
-13564.5
-14670.5
-15793
-16928.6
-18072.9
-19219.9
-20362.8
-21493
-22601.3
-23676.9
-24708.4
-25683.1
-26587.9
-27408.8
-28131.8
-28742.3
-29226
-29568.9
-29757.4
-29779
-29622.1
-29276.5
-28733.9
-27987.6
-27033.3
-25868.9
-24495
-22914.9
-21134.7
-19163.4
-17013.2
-14699.2
-12239.6
-9655.58
-6971.14
-4212.86
-1409.36
-526.838
-1579.27
-2628.39
-3673.13
-4713.78
-5751.95
-6790.27
-7832.03
-8880.78
-9939.98
-11012.7
-12101.2
-13207.1
-14330.8
-15471.7
-16628
-17796.4
-18972.5
-20150.5
-21323.3
-22482.5
-23618.5
-24720.5
-25776.6
-26774.2
-27699.6
-28538.7
-29276.9
-29899.5
-30391.8
-30739.3
-30928.1
-30945.3
-30779
-30418.6
-29855.3
-29082.2
-28094.5
-26890
-25468.7
-23833.5
-21990.4
-19947.9
-17718
-15315.7
-12759.2
-10070.1
-7273.26
-4396.71
-1471.1
-574.16
-1719.64
-2857.34
-3984.23
-5099.61
-6204.92
-7303.21
-8398.55
-9495.35
-10598
-11710.2
-12835.2
-13975
-15130.7
-16301.8
-17486.9
-18683
-19885.7
-21089.4
-22286.8
-23469.6
-24628.1
-25751.3
-26827.2
-27842.9
-28784.5
-29637.8
-30387.8
-31019.4
-31517.8
-31868.1
-32056.2
-32068.6
-31893.3
-31519.3
-30937.4
-30140.4
-29123.2
-27882.8
-26419.1
-24734.5
-22834.1
-20726.2
-18421.9
-15935.7
-13285.5
-10492.8
-7583.27
-4586.24
-1534.9
-631.415
-1888.73
-3131.05
-4352.51
-5551.37
-6729.34
-7890.49
-9040.23
-10184.4
-11328.6
-12477.8
-13636
-14806.1
-15989.6
-17186.7
-18396.2
-19615.3
-20840
-22064.5
-23281.9
-24483.6
-25659.9
-26799.8
-27891.1
-28920.8
-29874.9
-30738.9
-31497.6
-32135.7
-32638.1
-32989.7
-33176.2
-33183.7
-32999.9
-32613.6
-32015.2
-31197.1
-30153.6
-28881.6
-27380.2
-25651
-23698.4
-21529.8
-19155.1
-16587.8
-13844.6
-10946.5
-7918.96
-4792.92
-1604.75
-704.038
-2101.83
-3472.3
-4805.73
-6099.73
-7357.35
-8584.86
-9790.03
-10980.9
-12164.8
-13348.3
-14536.6
-15733.5
-16941.1
-18160.3
-19390.1
-20628.2
-21870.7
-23112
-24345.1
-25561.6
-26751.7
-27904.4
-29007.6
-30047.8
-31011.2
-31882.9
-32647.8
-33290.3
-33795.1
-34146.9
-34331.1
-34333.8
-34142.2
-33744.8
-33131.9
-32295.3
-31228.9
-29929.1
-28394.1
-26624.9
-24624.8
-22399.5
-19957.6
-17310.4
-14472.5
-11462.9
-8306.09
-5033.85
-1686.7
-801.444
-2384.63
-3918
-5387.22
-6791.08
-8136.42
-9433.88
-10695.2
-11931.6
-13153.2
-14368.3
-15583.5
-16803.7
-18031.9
-19269.5
-20516.1
-21769.6
-23026.2
-24280.6
-25525.9
-26753.8
-27954.4
-29116.7
-30228.5
-31276.5
-32246.5
-33123.6
-33892.6
-34537.9
-35043.8
-35395
-35576.7
-35574.7
-35376.1
-34969.1
-34343.5
-33491
-32404.9
-31080.9
-29516.5
-27711.7
-25668.3
-23390.4
-20883.9
-18157
-15220.7
-12089.5
-8784.55
-5336.51
-1790.76
-941.669
-2783.84
-4531.8
-6168.44
-7699.34
-9140.41
-10510.4
-11827.5
-13107.5
-14363.8
-15607.2
-16846
-18086.1
-19331.6
-20584.3
-21844.3
-23109.9
-24377.5
-25642
-26896.5
-28132.8
-29341.2
-30510.5
-31628.5
-32681.8
-33656.4
-34537.2
-35308.8
-35955.6
-36461.8
-36811.9
-36991
-36984.8
-36780
-36364.8
-35728.6
-34862.6
-33759.9
-32415.4
-30825.8
-28989.9
-26907.8
-24581.4
-22013.3
-19207.3
-16167.8
-12901.7
-9420.79
-5749.33
-1935.54
-1164.25
-3392.73
-5431.75
-7274.93
-8950
-10492.3
-11934.8
-13304.9
-14624.9
-15912
-17179.8
-18438.3
-19694.8
-20954.2
-22218.9
-23489.3
-24764.2
-26040.1
-27312
-28573.2
-29815.6
-31029.4
-32203.6
-33325.9
-34382.9
-35360.4
-36243.5
-37016.6
-37664.1
-38170
-38518.9
-38695.6
-38685.8
-38475.9
-38054
-37409.2
-36532.4
-35416.1
-34054.8
-32444.3
-30582.1
-28466.7
-26097.2
-23472.2
-20589.4
-17443.9
-14028.3
-10335.4
-6367.09
-2161.1
-1572.27
-4418.02
-6854.98
-8945.02
-10774.8
-12417.1
-13926.6
-15343.5
-16697.3
-18009.8
-19297.2
-20571.2
-21840.4
-23110.3
-24383.8
-25662
-26943.5
-28225.3
-29502.4
-30768.3
-32014.9
-33232.4
-34409.8
-35534.8
-36594.2
-37573.5
-38457.9
-39231.9
-39879.5
-40385
-40732.7
-40907.4
-40894.7
-40680.9
-40253.8
-39602.5
-38717.4
-37590.9
-36216.7
-34590
-32707
-30564.7
-28159.3
-25485.3
-22532.7
-19284.2
-15710.8
-11767.6
-7397.83
-2570.94
-2494.83
-6369.7
-9322.34
-11677.6
-13652.6
-15380.3
-16943.4
-18396.1
-19774.9
-21105.6
-22406.8
-23691.6
-24969.4
-26246.3
-27525.8
-28808.9
-30094.8
-31380.3
-32660.8
-33929.6
-35178.7
-36398.5
-37577.8
-38704.5
-39765.2
-40745.6
-41630.7
-42405
-43052.7
-43557.7
-43904.5
-44077.8
-44063
-43846.6
-43416
-42760.3
-41869.7
-40736.2
-39353.2
-37715.4
-35818
-33656.5
-31225.1
-28514
-25506.2
-22170.7
-18450.3
-14240
-9352.54
-3494.52
-5217.65
-10627.6
-14094.8
-16655.7
-18727.1
-20506.3
-22100.1
-23572.3
-24964.4
-26304.8
-27613
-28903.4
-30185.5
-31466
-32748.4
-34034.1
-35322.1
-36609.4
-37891.5
-39161.8
-40412.1
-41632.9
-42813.1
-43940.6
-45001.9
-45982.8
-46868.2
-47642.6
-48290.2
-48795
-49141.3
-49313.9
-49298.1
-49080.3
-48648
-47990
-47096.6
-45959.6
-44572.2
-42928.6
-41023.8
-38852.4
-36407.1
-33675.8
-30636.9
-27249.1
-23431.4
-19014.6
-13611.8
-6217.79
2501.34
6388.38
9352.03
11717.2
13701.4
15437.5
17008.5
18468.5
19854.2
21191.5
22498.9
23789.7
25073.3
26355.7
27640.5
28928.9
30219.7
31510.2
32795.3
34068.7
35322.2
36546.1
37729.4
38859.7
39923.8
40907.2
41795
42571.4
43220.7
43726.9
44074.3
44247.4
44231.8
44013.8
43580.8
42921.8
42027
40888.5
39499.4
37854.5
35949
33778.4
31336.8
28614.5
25594.5
22245.6
18510.7
14284.7
9380.37
3504.1
1820.97
5017.07
7662.94
9875.19
11779.3
13469.8
15012.7
16454.3
17827.2
19155.2
20455.6
21741
23020.2
24299.1
25581
26866.9
28155.6
29444.2
30727.8
31999.7
33252
34474.8
35657.2
36786.8
37850.2
38833.2
39720.6
40497
41146.3
41652.8
42000.6
42174.5
42159.9
41943.2
41512
40855.2
39963.2
38828.2
37443.5
35804.1
33906
31745.1
29316.7
26613.5
23622.2
20319.7
16665.6
12593.4
8007.72
2823.27
1365.25
3925.72
6198.14
8196.95
9975.82
11589.2
13082.3
14490
15838.8
17149.1
18436.1
19710.8
20981.5
22253.4
23529.5
24810.3
26094.7
27379.5
28659.8
29928.9
31178.5
32399.1
33579.5
34707.5
35769.6
36751.5
37638.2
38414.2
39063.6
39570.5
39919.2
40094.5
40081.9
39867.9
39440.2
38787.7
37901.3
36773.1
35397.1
33768.7
31884.7
29742.4
27339.2
24671.2
21731.3
18507.5
14980.4
11123.6
6913.32
2366.53
1086.2
3187.58
5139.68
6927.57
8568.45
10090
11520
12882.9
14199.1
15484.7
16752.4
18011.8
19270
20531.5
21798.7
23071.9
24349.6
25628.6
26903.6
28168
29413.5
30630.4
31807.6
32932.8
33992.5
34972.6
35858
36633.2
37282.4
37789.7
38139.6
38316.9
38307.2
38097.1
37674.5
37028.6
36150.3
35032.3
33669.1
32056.7
30193.1
28077.1
25708.6
23087.6
20213.4
17084.5
13698.6
10056.1
6169.73
2085.66
907.01
2687.76
4388.78
5992.39
7501.18
8927.98
10289.2
11601.1
12878.5
14133.9
15377.7
16617.6
17859.5
19107.2
20362.5
21625.3
22893.8
24164.4
25432
26689.7
27929.1
29140.5
30312.8
31433.7
32489.8
33466.9
34350
35123.7
35772.2
36279.8
36630.9
36810.6
36804.5
36599.5
36183.6
35546.2
34678.8
33574.2
32227.6
30636
28798.1
26714.8
24388.3
21822.1
19021.2
15991.8
12743.2
9290.55
5661
1903.48
784.218
2335.56
3842.86
5292.44
6682.38
8018.37
9309.93
10567.9
11802.8
13024.1
14239.9
15456.5
16678.6
17909.2
19149.4
20398.8
21655.2
22914.8
24172.3
25420.8
26651.8
27855.4
29020.8
30135.4
31186.1
32158.6
33038.1
33809.1
34456.1
34963.4
35315.6
35497.9
35496.1
35297.2
34889.4
34262.7
33408.6
32320.6
30994.3
29427.7
27620.6
25575.3
23296.2
20789.8
18065.2
15134
12012.3
8722.14
5295.17
1776.12
694.884
2075.4
3431.12
4752.96
6038.45
7290.24
8514.1
9717.33
10907.5
12091.8
13276.4
14466.4
15665.3
16875.3
18097.1
19329.7
20570.8
21816.3
23060.6
24296.9
25516.5
26709.7
27865.4
28971.3
30014.3
30980.2
31854.2
32621
33265.3
33771.4
34124.3
34309
34311.9
34120
33721.9
33107.7
32269.5
31201.2
29899
28361.5
26589.7
24587.1
22359.8
19916.6
17269.3
14433.1
11427.6
8277.56
5015.08
1680.11
626.412
1874.19
3108.19
4322.97
5516.86
6691.46
7850.64
8999.55
10143.8
11288.8
12439.4
13599.4
14771.7
15957.6
17157.4
18369.7
19591.8
20819.5
22047.1
23267.5
24472.3
25651.6
26794.4
27888.6
28921
29877.6
30743.8
31504.5
32144.3
32648.1
33000.7
33187.7
33195.4
33011.3
32624.2
32024.6
31204.8
30159.3
28884.9
27380.7
25648.6
23693.1
21521.7
19144.7
16575.7
13831.8
10934.2
7908.61
4785.97
1602.29
571.459
1711.77
2844.94
3968.19
5080.92
6184.56
7282.09
8377.43
9474.89
10578.7
11692.6
12819.5
13961.6
15119.7
16293.6
17481.5
18680.4
19886.2
21092.8
22293.3
23479.2
24640.6
25766.7
26845.4
27863.7
28807.8
29663.3
30415.3
31048.6
31548.3
31899.6
32088.2
32100.8
31925.2
31550.4
30967.3
30168.7
29149.3
27906.4
26439.9
24752.1
22848.5
20737.2
18429.8
15940.7
13288.2
10493.8
7583.21
4585.86
1534.71
525.48
1575.33
2622.2
3665.22
4704.75
5742.41
6780.8
7823.16
8872.99
9933.66
11008.1
12098.8
13207
14333.2
15476.8
16635.8
17807.1
18986.1
20167.1
21342.9
22505.1
23644
24748.8
25807.7
26807.9
27735.7
28577
29317.2
29941.4
30435
30783.4
30972.8
30990.2
30823.5
30462.4
29897.8
29123
28133.2
26926.1
25501.9
23863.5
22016.8
19970.7
17737.1
15331.1
12771.2
10078.9
7279.2
4400.12
1472.2
485.507
1456.36
2426.95
3397.69
4369.75
5345.02
6326
7315.54
8316.62
9332.05
10364.2
11415
12485.3
13575.3
14684
15809.2
16947.6
18094.8
19244.7
20390.5
21523.7
22634.8
23713.2
24747.3
25724.6
26631.7
27454.8
28179.7
28791.8
29276.8
29620.6
29809.7
29831.4
29674.2
29327.9
28784
28036
27079.6
25912.6
24535.7
22952.3
21168.4
19193.2
17039
14720.8
12257.1
9668.99
6980.59
4218.47
1411.22
449.517
1349.01
2250.01
3153.85
4062.27
4977.44
5901.85
6838.14
7788.96
8756.74
9743.47
10750.6
11778.7
12827.7
13896.4
14982.5
16082.5
17192
18305.1
19414.8
20513.1
21590.6
22636.9
23640.7
24589.8
25471.3
26271.7
26977.2
27573.7
28047.3
28384.3
28571.8
28597.3
28449.9
28119.7
27598.7
26880.7
25961.5
24839.6
23515.6
21993.3
20278.8
18381.4
16313.2
14089.3
11727.6
9248.67
6675.52
4033.41
1349.19
416.078
1249.1
2084.78
2925.06
3772.11
4628.3
5496.13
6378.13
7276.72
8194.04
9131.81
10091.2
11072.5
12075.5
13098.7
14139.9
15195.5
16261.1
17331.1
18398.4
19455.4
20492.8
21500.8
22468.2
23383.4
24233.9
25006.6
25688.3
26265.4
26724.4
27052.4
27236.6
27265.3
27128
26815.2
26319.3
25634.5
24756.9
23685.1
22420.2
20965.7
19327.9
17516.1
15542
13420.4
11168.4
8805.99
6354.99
3839.3
1284.18
384.15
1153.57
1926.37
2704.89
3491.56
4288.88
5099.36
5925.44
6769.37
7633.08
8518.07
9425.27
10354.9
11306.5
12278.5
13268.7
14273.6
15288.8
16308.8
17327.1
18335.8
19326.5
20289.4
21214.1
22089.2
22902.9
23642.6
24295.7
24849.2
25290.3
25606.5
25785.8
25817
25689.9
25395.8
24927.4
24279.2
23447.7
22431.6
21232.1
19852.8
18299.9
16582.2
14711.3
12701.2
10568.5
8331.85
6012.19
3631.92
1214.77
352.971
1060.18
1771.18
2488.53
3214.8
3952.55
4704.26
5472.27
6258.7
7065.32
7893.45
8743.86
9616.67
10511.2
11426.2
12359
13306.6
14264.6
15227.7
16189.6
17143.1
18079.9
18990.9
19866
20694.6
21465.4
22166.6
22786.1
23311.7
23731.2
24032.9
24205.4
24238.2
24121.7
23847.5
23409
22801
22020.2
21065.6
19938.3
18642
17182.5
15568.3
13810.5
11922.3
9919.43
7819.51
5642.09
3408.17
1139.9
321.978
967.258
1616.51
2272.37
2937.45
3614.28
4305.28
5012.68
5738.47
6484.26
7251.23
8040.05
8850.73
9682.62
10534.3
11403.4
12286.9
13180.7
14079.8
14978.3
15869.2
16744.9
17596.8
18415.5
19191
19912.7
20569.6
21150.4
21643.5
22037.8
22322.1
22485.9
22519.3
22413.5
22160.6
21754.4
21190.2
20464.9
19577.7
18529.7
17324.4
15967.3
14466.5
12832.3
11077.1
9215.65
7264.31
5241.24
3165.93
1058.86
290.765
873.62
1460.44
2053.83
2656.34
3270.43
3898.4
4542.36
5204.14
5885.22
6586.66
7309.01
8052.25
8815.71
9598.01
10397
11209.7
12032.4
12860.3
13688.1
14509.2
15316.6
16102.3
16857.7
17573.5
18239.9
18846.7
19383.5
19839.8
20205.1
20469.1
20622.3
20655.4
20560.3
20330
19958.5
19441.7
18776.7
17962.9
17001.3
15895.1
14649.6
13272.2
11772.4
10161.8
8453.82
6663.54
4807.64
2903.95
971.232
259.055
778.437
1301.62
1831.11
2369.31
2918.53
3480.93
4058.45
4652.76
5265.21
5896.73
6547.8
7218.37
7907.78
8614.74
9337.26
10072.6
10817.4
11567.2
12317.2
13061.4
13793.5
14506.1
15191.4
15841
16445.9
16997.1
17484.9
17899.8
18232.4
18473.4
18613.9
18645.9
18561.7
18355.1
18020.8
17554.8
16954.9
16220.3
15352.1
14353.1
13228.3
11984.3
10629.8
9175.27
7632.88
6016.31
4340.59
2621.8
876.86
226.672
681.195
1139.24
1603.11
2075.03
2557.1
3051.29
3559.35
4082.77
4622.75
5180.12
5755.27
6348.13
6958.1
7584.02
8224.07
8875.83
9536.18
10201.3
10866.8
11527.4
12177.3
12810.2
13419
13996.2
14533.9
15024
15457.9
15827.3
16123.7
16338.9
16465
16494.8
16421.6
16239.9
15944.9
15533.3
15002.9
14353.2
13585
12701.1
11705.6
10604.7
9406.04
8118.85
6753.94
5323.44
3840.65
2319.81
775.855
193.53
581.643
972.898
1369.34
1772.95
2185.58
2608.96
3044.63
3493.89
3957.77
4436.99
4931.88
5442.36
5967.9
6507.46
7059.48
7621.82
8191.78
8766.07
9340.79
9911.47
10473.1
11020.1
11546.3
12045.4
12510.6
12934.6
13310.2
13630.1
13887
14073.8
14183.8
14210.6
14148.5
13992.8
13739.3
13385.1
12928.4
12368.7
11706.9
10945.3
10087.4
9138.7
8105.67
6996.37
5820.11
4587.36
3309.57
1999.02
668.565
159.62
479.756
802.571
1129.81
1463.14
1804.15
2154.3
2514.87
2886.97
3271.46
3668.92
4079.63
4503.51
4940.12
5388.58
5847.56
6315.29
6789.5
7267.44
7745.85
8221
8688.69
9144.27
9582.71
9998.6
10386.2
10739.7
11053
11319.9
11534.4
11690.6
11782.8
11805.9
11755
11626.2
11416
11122
10742.9
10278
9728.18
9095.32
8382.52
7594.13
6735.68
5813.84
4836.37
3811.96
2750.15
1661.11
555.553
124.992
375.697
628.551
884.953
1146.24
1413.69
1688.45
1971.55
2263.87