/*--------------------------------*- C++ -*----------------------------------*\
| =========                 |                                                 |
| \\      /  F ield         | OpenFOAM: The Open Source CFD Toolbox           |
|  \\    /   O peration     | Version:  5.x                                   |
|   \\  /    A nd           | Web:      www.OpenFOAM.org                      |
|    \\/     M anipulation  |                                                 |
\*---------------------------------------------------------------------------*/
FoamFile
{
    version     2.0;
    format      ascii;
    class       volScalarField;
    location    "0.7";
    object      gradTx;
}
// * * * * * * * * * * * * * * * * * * * * * * * * * * * * * * * * * * * * * //

dimensions      [0 -1 0 1 0 0 0];

internalField   nonuniform List<scalar> 
25000
(
5218.44
2498.78
1582.5
1183.88
973.746
848.945
769.837
718.249
684.593
663.214
650.453
643.743
641.149
641.122
642.35
643.683
644.076
642.566
638.254
630.298
617.915
600.377
577.025
547.271
510.607
466.616
414.983
355.5
288.074
212.736
129.645
39.0838
-58.5415
-162.71
-272.805
-388.133
-507.966
-631.589
-758.378
-887.915
-1020.15
-1155.71
-1296.36
-1445.97
-1612.47
-1812.54
-2084.52
-2530.5
-3478.81
-6214.64
10626.8
6378.38
4445.58
3448.47
2876.92
2523.99
2296.1
2146.12
2047.86
1985.36
1948.14
1928.73
1921.45
1921.74
1925.7
1929.9
1931.25
1926.85
1914.02
1890.25
1853.19
1800.65
1730.67
1641.48
1531.57
1399.67
1244.86
1066.49
864.312
638.406
389.251
117.7
-175.022
-487.349
-817.419
-1163.14
-1522.32
-1892.77
-2272.58
-2660.42
-3056.02
-3461.01
-3880.22
-4324.22
-4814.24
-5392.94
-6150.01
-7289.16
-9318.07
-13615
14083
9326.3
6890.39
5514.14
4676.45
4139.8
3785.65
3549.68
3394.11
3295.07
3236.39
3206.33
3195.82
3197.48
3204.96
3212.65
3215.43
3208.54
3187.53
3148.22
3086.73
2999.44
2883.05
2734.65
2551.71
2332.15
2074.4
1777.42
1440.78
1064.63
649.768
197.635
-289.718
-809.661
-1359.06
-1934.4
-2531.95
-3147.99
-3779.2
-4423.12
-5078.93
-5748.61
-6438.93
-7164.8
-7955.71
-8868.54
-10015.3
-11628.3
-14224.3
-19061.8
16617.1
11661.1
8972.58
7368.28
6348.96
5675.8
5222.56
4916.85
4714.16
4585.21
4509.54
4471.95
4460.45
4465.12
4477.37
4489.52
4494.49
4485.73
4457.06
4402.69
4317.18
4195.52
4033.11
3825.87
3570.29
3263.46
2903.21
2488.08
2017.48
1491.64
911.696
279.679
-401.51
-1128.15
-1895.8
-2699.47
-3533.81
-4393.45
-5273.48
-6170.03
-7081.24
-8008.7
-8959.66
-9950.88
-11015.3
-12214.8
-13666.7
-15602.2
-18514.8
-23583.8
18640
13593.8
10772.6
9032.4
7893.84
7124.58
6598.24
6239.74
6001.17
5849.97
5762.67
5721.37
5711.68
5721.47
5740.09
5757.93
5766.11
5756.3
5720.68
5651.85
5542.89
5387.39
5179.48
4913.94
4586.26
4192.76
3730.62
3198.03
2594.21
1919.5
1175.38
364.494
-509.378
-1441.4
-2425.78
-3455.97
-4524.92
-5625.51
-6750.97
-7895.76
-9056.48
-10233.5
-11433.4
-12672.6
-13984.1
-15429.6
-17123.9
-19289.6
-22398.6
-27590
20342.7
15251.2
12357.2
10535.8
9320.92
8486.88
7909.63
7513.93
7250.49
7084.89
6991.64
6950.81
6946.04
6963.3
6990.12
7015.11
7027.65
7017.78
6976.04
6893.51
6761.8
6573.13
6320.4
5997.24
5598.21
5118.8
4555.63
3906.49
3170.46
2348
1440.94
452.575
-612.434
-1748.08
-2947.19
-4201.58
-5502.43
-6840.67
-8207.55
-9595.5
-10999.2
-12417.1
-13854.1
-15325
-16860.8
-18520.4
-20413.7
-22754.6
-26000.1
-31268.8
21826
16710.4
13775.2
11905.5
10643
9767.38
9157.02
8737.49
8459.15
8286.57
8192.92
8156.76
8160.11
8187.32
8224.28
8257.97
8276.16
8267.29
8220.37
8125
7971.36
7750.34
7453.59
7073.69
6604.22
6039.91
5376.8
4612.31
3745.41
2776.65
1708.28
544.215
-709.938
-2046.99
-3458.31
-4934.06
-6463.52
-8035.56
-9639.3
-11264.9
-12904.6
-14554.8
-16217.9
-17906
-19647.3
-21497.1
-23560
-26042.6
-29392.5
-34717.3
23148.5
18019.5
15061.1
13163.2
11872.5
10972
10342.3
9909.92
9625.25
9452.35
9363.44
9335.92
9350.49
9390.09
9439.12
9483.08
9508.22
9501.48
9450.39
9343.11
9168.45
8916
8576.23
8140.62
7601.85
6953.89
6192.21
5313.9
4317.81
3204.62
1976.98
639.486
-801.31
-2337
-3957.47
-5651.14
-7405.35
-9206.83
-11042.3
-12899.6
-14768.5
-16642.5
-18521.3
-20414.1
-22345.9
-24367.9
-26580.2
-29183.7
-32619.5
-37989.4
24346.2
19210
16239
14325.8
13019.9
12106.5
11467.9
11031.4
10747.5
10580
10500.3
10485
10513.7
10567.9
10630.9
10686.6
10720
10716.5
10662.2
10544
10349.4
10066.5
9684.84
9194.77
8588.06
7857.97
6999.43
6009.18
4885.99
3630.69
2246.34
738.227
-886.134
-2617.09
-4443.01
-6350.55
-8325.04
-10351
-12412.8
-14495.5
-16586.4
-18676
-20761.1
-22847.9
-24957.8
-27138.4
-29485.7
-32196.2
-35706.7
-41115
25442.3
20302.7
17325.7
15405.5
14093.2
13175.6
12535.9
12102
11824.7
11667.2
11600.7
11600.7
11645.9
11716.9
11795.4
11864.2
11907
11907.8
11851.5
11723.4
11509.7
11197.7
10775.3
10232.2
9559.2
8748.81
7795.46
6695.59
5447.86
4053.29
2515.35
840.042
-964.154
-2886.32
-4913.3
-7029.96
-9219.59
-11464.4
-13746.4
-16047.9
-18353.5
-20650.8
-22933.5
-25204.6
-27482.3
-29810.8
-32282.4
-35090.3
-38667.9
-44110.5
26452.3
21311.5
18332.8
16411.2
15098.7
14183
13548
13121.9
12855.4
12711.8
12661.5
12679.5
12743.3
12832.6
12928
13011.2
13064.5
13070.6
13013
12876
12644.6
12304.5
11843
11248.5
10511
9622.49
8576.78
7370.05
6000.87
4470.46
2782.7
944.306
-1035.26
-3143.82
-5366.69
-7686.93
-10085.8
-12543.2
-15038.6
-17551.9
-20064.6
-22561.6
-25033.5
-27480.2
-29916.7
-32384.1
-34971.7
-37869.6
-41508.9
-46982.9
27386.3
22245.9
19268.3
17348.9
16040.4
15130.9
14504.8
14090.3
13838.1
13711.3
13679.6
13717.3
13801.4
13910.4
14023.9
14122.3
14186.9
14199.1
14141.3
13996.5
13748.3
13381.6
12882.4
12238.4
11438.7
10474.6
9339.38
8029.04
6542.09
4879.89
3046.79
1050.19
-1099.47
-3388.77
-5801.47
-8318.88
-10920.2
-13583.1
-16284.6
-19001.9
-21713.8
-24402.3
-27055
-29668.9
-32256
-34854.5
-37550.9
-40533
-44229.7
-49732.8
28251
23112
20137.3
18222.7
16921
16020.7
15406.3
15006.1
14770.7
14662.6
14651.2
14710.2
14815.7
14945.2
15077.5
15191.9
15268.4
15287.5
15230.2
15078.4
14814.7
14422.8
13887.8
13196.3
12336.9
11300
10078.7
8668.63
7068.18
5278.97
3305.76
1156.66
-1156.93
-3620.36
-6215.91
-8923.12
-11719.2
-14579.6
-17479
-20391.9
-23294.4
-26165.8
-28990.8
-31763.5
-34493.3
-37215.7
-40014.6
-43075.7
-46826.1
-52356.3
29050.5
23913.5
20942.9
19034.6
17741.7
16852.6
16251.8
15867.7
15650.6
15562.5
15572.6
15653.6
15781.1
15931.7
16083.2
16213.9
16302.8
16329.2
16273.2
16115.3
15837.2
15421.7
14852.7
14116.2
13199.8
12093.6
10790
9284.5
7575.52
5664.8
3557.55
1262.54
-1207.87
-3837.85
-6608.23
-9496.82
-12478.9
-15527.9
-18615.9
-21715.1
-24799
-27844.1
-30832.6
-33755.7
-36620.3
-39459.3
-42354.6
-45489.9
-49290.6
-54846.3
29787
24652.4
21686.7
19785.7
18502.6
17625.9
17039.9
16672.9
16474.8
16407.5
16439.3
16542.8
16692.4
16864.1
17034.8
17182
17283.4
17317.5
17263.2
17100.2
16808.9
16371.3
15770.5
14991.5
14021.3
12849.4
11468
9872.08
8060.2
6034.27
3799.91
1366.54
-1252.6
-4040.49
-6976.58
-10037.1
-13195.4
-16422.7
-19689.2
-22964.6
-26219.8
-29428.8
-32571.2
-35635.8
-38626.9
-41575.4
-44561
-47765.5
-51613.3
-57192.7
30461.5
25329.6
22369
20475.9
19203.1
18339.2
17768.6
17418.9
17240.1
17193.6
17247.2
17372.7
17544.1
17736.7
17926.3
18089.6
18203.5
18245.4
18193.3
18025.8
17722.6
17264.6
16634.2
15815.5
14795.1
13561.7
12107.2
10426.6
8518.19
6384.15
4030.48
1467.24
-1291.47
-4227.55
-7319.13
-10540.8
-13864.3
-17259
-20692.7
-24132.9
-27548.3
-30910.5
-34196.6
-37393.2
-40502.4
-43552.7
-46622.2
-49891.2
-53782.6
-59384.1
31074
25944.7
22989.4
21104.2
19841.9
18990.9
18435.4
18102.9
17943
17916.7
17991.4
18138.4
18330.9
18543.4
18751.3
18930.2
19056.2
19105.8
19056.1
18884.9
18571
18094.4
17436.8
16581.6
15514.6
14224.4
12702.4
10943.2
8945.36
6711.1
4246.85
1563.21
-1324.88
-4398.33
-7634.01
-11005.1
-14481.7
-18031.2
-21619.6
-25212.4
-28776
-32279.7
-35698.6
-39017
-42235
-45379.2
-48526
-51854.3
-55785.9
-61407.7
31623.6
26496.9
23546.9
21669.3
20417.1
19578.6
19037.7
18721.7
18579.9
18572.8
18667.5
18834.7
19047.1
19278.5
19503.6
19697.2
19834.7
19891.7
19844.7
19670.4
19347
18853.6
18171.3
17282.9
16173.6
14831.6
13247.9
11417.1
9337.6
7011.85
4446.59
1653.01
-1353.26
-4552.16
-7919.42
-11426.9
-15043.2
-18734.1
-22463.7
-26195.5
-29894.2
-33526.9
-37066.7
-40496
-43812.9
-47042.5
-50259.6
-53641.8
-57609.8
-63250
32109.3
26985.1
24039.9
22169.6
20926.9
20100
19572.7
19272
19146.9
19157.6
19270.9
19456.7
19687.4
19936.3
20177.1
20384.3
20532.5
20596.5
20552.1
20375.3
20043.5
19535.3
18831
17913
16765.9
15377.5
13738.6
11843.6
9690.94
7283.18
4627.38
1735.22
-1377
-4688.37
-8173.6
-11803.4
-15544.8
-19362.4
-23218.4
-27074.9
-30894.5
-34642.6
-38290.6
-41819.1
-45224.5
-48530.4
-51810.2
-55240.5
-59241.1
-64897.8
32529.5
27407.5
24466.7
22603
21369
20552.6
20037.5
19750.7
19640.7
19667.4
19797.2
19999.8
20246.9
20511.3
20766.3
20985.7
21143.4
21213.8
21171.8
20993
20654.1
20133.1
19409.7
18465.8
17285.7
15856.8
14169.5
12218.4
10001.6
7522.06
4786.98
1808.49
-1396.51
-4806.37
-8394.9
-12131.7
-15982.8
-19911.2
-23878
-27843.5
-31768.8
-35618
-39360.5
-42975.7
-46458.4
-49831
-53165.7
-56637.9
-60667
-66338
32882.7
27762.6
24825.8
22967.7
21741.2
20934
20429.6
20154.8
20057.8
20098.4
20242.5
20459.5
20720.8
20998.6
21265.9
21495.8
21661.8
21737.8
21698.1
21517.7
21172.9
20641
19901.5
18935.7
17727.7
16264.4
14536.2
12537.4
10266.3
7725.74
4923.37
1871.61
-1412.15
-4905.62
-8581.83
-12409.5
-16353.6
-20376.1
-24436.8
-28494.8
-32509.8
-36444.6
-40267.4
-43956
-47504.3
-50933.3
-54314.5
-57822.4
-61875.5
-67558.7
33167.4
28048.9
25115.3
23262
22041.7
21242.1
20746.5
20481.6
20395.4
20447.4
20603.3
20832.2
21105.2
21394.1
21671.4
21910
22082.9
22163.5
22125.7
21944.1
21594.5
21054
20301.4
19317.9
18087.2
16596
14834.6
12797
10481.8
7891.79
5034.76
1923.48
-1424.25
-4985.62
-8733.06
-12634.6
-16654.2
-20753.1
-24890.1
-29023.1
-33111
-37115.3
-41003.2
-44751.5
-48352.9
-51827.8
-55246.6
-58783.4
-62856.1
-68549.1
33382.2
28265
25333.8
23484.2
22268.7
21474.9
20986.1
20728.8
20650.9
20711.6
20876.6
21114.7
21396.6
21693.9
21979
22224.3
22402.4
22486.6
22450.3
22267.9
21914.7
21367.6
20605.2
19608.3
18360.3
16848
15061.4
12994.5
10645.8
8018.18
5119.67
1963.21
-1433.08
-5046
-8847.49
-12805
-16882
-21038.9
-25233.7
-29423.8
-33567
-37624
-41561.2
-45354.7
-48996.5
-52506.2
-55953.6
-59512.2
-63599.7
-69300.2
33526.1
28409.7
25480.2
23633.1
22420.8
21631
21146.8
20894.6
20822.3
20889
21060.2
21304.4
21592.3
21895.4
22185.7
22435.5
22617.3
22703.9
22668.6
22485.7
22130.1
21578.6
20809.6
19803.6
18544.1
17017.6
15214
13127.4
10756.2
8103.33
5176.93
1990.09
-1438.85
-5086.43
-8924.27
-12919.4
-17035
-21230.9
-25464.6
-29693
-33873.3
-37965.8
-41936.3
-45760.1
-49429
-52962
-56428.6
-60002
-64099.5
-69805
33598.2
28482.3
25553.6
23707.7
22497.1
21709.3
21227.4
20977.9
20908.4
20978.1
21152.3
21399.7
21690.7
21996.7
22289.6
22541.7
22725.3
22813.1
22778.4
22595.1
22238.4
21684.7
20912.3
19901.8
18636.6
17102.9
15290.8
13194.3
10811.7
8146.18
5205.75
2003.65
-1441.7
-5106.71
-8962.82
-12976.9
-17111.9
-21327.3
-25580.6
-29828.2
-34027.3
-38137.6
-42124.7
-45963.8
-49646.3
-53191.1
-56667.3
-60248.1
-64350.6
-70058.6
33598.2
28482.3
25553.6
23707.7
22497.1
21709.3
21227.5
20977.9
20908.4
20978.1
21152.3
21399.7
21690.7
21996.7
22289.6
22541.7
22725.3
22813.1
22778.4
22595.1
22238.4
21684.7
20912.3
19901.8
18636.6
17102.9
15290.8
13194.3
10811.7
8146.17
5205.74
2003.63
-1441.72
-5106.72
-8962.83
-12976.9
-17111.9
-21327.3
-25580.7
-29828.3
-34027.3
-38137.6
-42124.7
-45963.8
-49646.3
-53191.1
-56667.3
-60248.1
-64350.6
-70058.6
33526.1
28409.7
25480.2
23633.1
22420.8
21631
21146.8
20894.6
20822.3
20889.1
21060.2
21304.4
21592.3
21895.5
22185.8
22435.5
22617.3
22703.9
22668.7
22485.7
22130.1
21578.6
20809.6
19803.6
18544.1
17017.6
15214
13127.4
10756.1
8103.31
5176.9
1990.05
-1438.89
-5086.47
-8924.31
-12919.5
-17035.1
-21230.9
-25464.7
-29693
-33873.4
-37965.8
-41936.3
-45760.1
-49429
-52962
-56428.6
-60002
-64099.4
-69804.9
33382.2
28265
25333.8
23484.2
22268.7
21474.9
20986.2
20728.8
20650.9
20711.7
20876.7
21114.7
21396.6
21694
21979
22224.3
22402.5
22486.6
22450.3
22267.9
21914.7
21367.6
20605.2
19608.3
18360.3
16848
15061.3
12994.5
10645.7
8018.14
5119.62
1963.15
-1433.14
-5046.07
-8847.56
-12805.1
-16882.1
-21039
-25233.8
-29423.8
-33567
-37624
-41561.3
-45354.7
-48996.5
-52506.1
-55953.5
-59512.1
-63599.7
-69300.1
33167.4
28049
25115.3
23262
22041.7
21242.1
20746.6
20481.6
20395.4
20447.4
20603.4
20832.3
21105.2
21394.1
21671.4
21910
22082.9
22163.5
22125.7
21944.2
21594.5
21054
20301.4
19317.9
18087.2
16596
14834.5
12797
10481.8
7891.73
5034.69
1923.4
-1424.34
-4985.72
-8733.15
-12634.6
-16654.3
-20753.2
-24890.2
-29023.2
-33111.1
-37115.4
-41003.2
-44751.5
-48352.9
-51827.7
-55246.6
-58783.3
-62856
-68549
32882.7
27762.7
24825.8
22967.8
21741.2
20934.1
20429.7
20154.8
20057.8
20098.4
20242.6
20459.6
20720.9
20998.7
21266
21495.9
21661.9
21737.9
21698.1
21517.8
21172.9
20641.1
19901.5
18935.7
17727.7
16264.3
14536.1
12537.3
10266.2
7725.67
4923.28
1871.51
-1412.26
-4905.73
-8581.95
-12409.6
-16353.8
-20376.2
-24436.9
-28494.9
-32509.9
-36444.7
-40267.4
-43956
-47504.3
-50933.3
-54314.4
-57822.3
-61875.4
-67558.5
32529.5
27407.5
24466.8
22603
21369
20552.7
20037.6
19750.7
19640.7
19667.5
19797.2
19999.8
20246.9
20511.3
20766.4
20985.7
21143.5
21213.9
21171.9
20993.1
20654.2
20133.1
19409.7
18465.8
17285.7
15856.7
14169.5
12218.3
10001.6
7521.97
4786.88
1808.38
-1396.64
-4806.51
-8395.05
-12131.9
-15983
-19911.4
-23878.1
-27843.6
-31768.9
-35618
-39360.6
-42975.7
-46458.4
-49830.9
-53165.5
-56637.8
-60666.9
-66337.8
32109.3
26985.1
24039.9
22169.6
20926.9
20100.1
19572.7
19272.1
19147
19157.7
19270.9
19456.8
19687.5
19936.3
20177.2
20384.4
20532.5
20596.6
20552.1
20375.3
20043.6
19535.4
18831.1
17913
16765.9
15377.5
13738.6
11843.6
9690.86
7283.08
4627.26
1735.09
-1377.14
-4688.52
-8173.76
-11803.5
-15545
-19362.5
-23218.6
-27075
-30894.6
-34642.7
-38290.7
-41819.1
-45224.4
-48530.3
-51810.1
-55240.3
-59240.9
-64897.6
31623.6
26497
23546.9
21669.3
20417.2
19578.7
19037.7
18721.8
18579.9
18572.8
18667.6
18834.8
19047.2
19278.6
19503.7
19697.3
19834.8
19891.8
19844.7
19670.5
19347
18853.7
18171.3
17282.9
16173.6
14831.6
13247.9
11417
9337.51
7011.74
4446.47
1652.87
-1353.42
-4552.33
-7919.6
-11427.1
-15043.4
-18734.2
-22463.8
-26195.7
-29894.3
-33527
-37066.8
-40496
-43812.9
-47042.4
-50259.5
-53641.6
-57609.6
-63249.8
31074
25944.7
22989.5
21104.2
19841.9
18990.9
18435.4
18103
17943.1
17916.8
17991.5
18138.5
18331
18543.5
18751.4
18930.3
19056.3
19105.9
19056.2
18885
18571.1
18094.5
17436.8
16581.6
15514.6
14224.4
12702.3
10943.1
8945.26
6710.99
4246.71
1563.06
-1325.05
-4398.52
-7634.2
-11005.3
-14481.9
-18031.4
-21619.8
-25212.5
-28776.1
-32279.8
-35698.7
-39017
-42234.9
-45379.1
-48525.9
-51854.1
-55785.6
-61407.4
30461.5
25329.6
22369
20475.9
19203.1
18339.3
17768.6
17419
17240.2
17193.6
17247.2
17372.8
17544.2
17736.8
17926.4
18089.7
18203.6
18245.5
18193.3
18025.9
17722.7
17264.7
16634.2
15815.5
14795.1
13561.7
12107.2
10426.5
8518.09
6384.03
4030.34
1467.08
-1291.65
-4227.74
-7319.33
-10541
-13864.5
-17259.2
-20692.8
-24133
-27548.4
-30910.6
-34196.7
-37393.2
-40502.3
-43552.6
-46622.1
-49891
-53782.4
-59383.9
29787
24652.4
21686.7
19785.7
18502.6
17625.9
17040
16672.9
16474.9
16407.5
16439.4
16542.9
16692.5
16864.2
17034.9
17182.1
17283.5
17317.6
17263.3
17100.2
16809
16371.4
15770.5
14991.5
14021.3
12849.4
11467.9
9872
8060.1
6034.15
3799.76
1366.37
-1252.78
-4040.69
-6976.79
-10037.3
-13195.6
-16423
-19689.4
-22964.7
-26219.9
-29428.9
-32571.2
-35635.8
-38626.9
-41575.3
-44560.8
-47765.3
-51613
-57192.5
29050.5
23913.5
20942.9
19034.7
17741.7
16852.6
16251.9
15867.8
15650.6
15562.6
15572.6
15653.7
15781.2
15931.8
16083.3
16214
16302.9
16329.3
16273.3
16115.4
15837.3
15421.7
14852.8
14116.2
13199.8
12093.5
10790
9284.43
7575.42
5664.67
3557.4
1262.38
-1208.06
-3838.05
-6608.44
-9497.04
-12479.1
-15528.1
-18616.1
-21715.3
-24799.2
-27844.2
-30832.6
-33755.7
-36620.2
-39459.2
-42354.5
-45489.6
-49290.3
-54846
28251
23112
20137.3
18222.7
16921
16020.8
15406.4
15006.2
14770.8
14662.6
14651.3
14710.3
14815.8
14945.3
15077.6
15192
15268.5
15287.6
15230.3
15078.5
14814.7
14422.8
13887.8
13196.4
12336.9
11300
10078.7
8668.56
7068.09
5278.85
3305.62
1156.49
-1157.12
-3620.56
-6216.13
-8923.33
-11719.4
-14579.8
-17479.1
-20392
-23294.5
-26165.9
-28990.8
-31763.6
-34493.3
-37215.5
-40014.4
-43075.5
-46825.8
-52356.1
27386.3
22245.9
19268.3
17348.9
16040.4
15131
14504.8
14090.3
13838.2
13711.3
13679.7
13717.4
13801.5
13910.5
14024
14122.4
14187
14199.2
14141.4
13996.5
13748.3
13381.6
12882.5
12238.4
11438.7
10474.5
9339.33
8028.98
6542
4879.77
3046.65
1050.02
-1099.66
-3388.96
-5801.68
-8319.09
-10920.4
-13583.3
-16284.8
-19002.1
-21714
-24402.4
-27055.1
-29668.9
-32255.9
-34854.3
-37550.8
-40532.8
-44229.5
-49732.5
26452.3
21311.5
18332.8
16411.2
15098.7
14183
13548
13121.9
12855.5
12711.9
12661.6
12679.5
12743.4
12832.7
12928.1
13011.3
13064.6
13070.7
13013.1
12876.1
12644.6
12304.6
11843
11248.5
10511
9622.48
8576.74
7369.98
6000.79
4470.34
2782.57
944.148
-1035.44
-3144.02
-5366.89
-7687.14
-10086
-12543.4
-15038.8
-17552.1
-20064.8
-22561.7
-25033.6
-27480.2
-29916.6
-32384
-34971.5
-37869.4
-41508.7
-46982.6
25442.3
20302.7
17325.7
15405.5
14093.2
13175.6
12536
12102.1
11824.7
11667.3
11600.8
11600.8
11646
11717
11795.5
11864.3
11907.1
11907.9
11851.6
11723.5
11509.8
11197.7
10775.4
10232.3
9559.21
8748.8
7795.42
6695.53
5447.78
4053.18
2515.22
839.892
-964.323
-2886.51
-4913.5
-7030.17
-9219.79
-11464.6
-13746.6
-16048.1
-18353.6
-20650.9
-22933.6
-25204.6
-27482.3
-29810.7
-32282.3
-35090.1
-38667.7
-44110.3
24346.2
19210
16239
14325.8
13019.9
12106.5
11467.9
11031.4
10747.5
10580
10500.4
10485.1
10513.8
10568
10631
10686.7
10720.1
10716.6
10662.3
10544.1
10349.4
10066.6
9684.89
9194.8
8588.07
7857.96
6999.4
6009.13
4885.91
3630.59
2246.22
738.088
-886.292
-2617.26
-4443.19
-6350.74
-8325.24
-10351.2
-12412.9
-14495.7
-16586.5
-18676.1
-20761.2
-22847.9
-24957.8
-27138.3
-29485.6
-32196.1
-35706.5
-41114.8
23148.5
18019.5
15061.1
13163.2
11872.5
10972
10342.3
9909.96
9625.3
9452.41
9363.51
9336
9350.58
9390.18
9439.22
9483.18
9508.32
9501.58
9450.49
9343.2
9168.53
8916.06
8576.28
8140.66
7601.87
6953.89
6192.19
5313.86
4317.74
3204.53
1976.87
639.359
-801.455
-2337.16
-3957.64
-5651.31
-7405.53
-9207
-11042.5
-12899.8
-14768.6
-16642.6
-18521.3
-20414.1
-22345.9
-24367.9
-26580.1
-29183.5
-32619.3
-37989.1
21826
16710.3
13775.2
11905.5
10643
9767.38
9157.04
8737.52
8459.19
8286.63
8192.99
8156.83
8160.19
8187.41
8224.37
8258.06
8276.25
8267.38
8220.46
8125.08
7971.43
7750.4
7453.64
7073.73
6604.24
6039.92
5376.78
4612.28
3745.35
2776.58
1708.18
544.102
-710.068
-2047.13
-3458.46
-4934.22
-6463.68
-8035.72
-9639.45
-11265
-12904.8
-14554.9
-16217.9
-17906
-19647.3
-21497
-23559.9
-26042.5
-29392.3
-34717.1
20342.6
15251.2
12357.2
10535.8
9320.92
8486.89
7909.65
7513.96
7250.53
7084.94
6991.7
6950.87
6946.11
6963.38
6990.2
7015.19
7027.74
7017.86
6976.12
6893.58
6761.87
6573.19
6320.44
5997.28
5598.23
5118.81
4555.62
3906.46
3170.42
2347.93
1440.86
452.477
-612.547
-1748.21
-2947.32
-4201.72
-5502.58
-6840.81
-8207.69
-9595.62
-10999.3
-12417.2
-13854.2
-15325
-16860.8
-18520.4
-20413.6
-22754.4
-25999.9
-31268.6
18639.9
13593.8
10772.6
9032.38
7893.83
7124.58
6598.25
6239.76
6001.2
5850.01
5762.72
5721.43
5711.75
5721.53
5740.16
5758
5766.18
5756.37
5720.75
5651.91
5542.95
5387.44
5179.52
4913.97
4586.28
4192.76
3730.61
3198
2594.17
1919.44
1175.31
364.412
-509.473
-1441.5
-2425.89
-3456.09
-4525.05
-5625.63
-6751.09
-7895.86
-9056.57
-10233.6
-11433.4
-12672.6
-13984.1
-15429.6
-17123.8
-19289.4
-22398.5
-27589.9
16617.1
11661.1
8972.56
7368.26
6348.95
5675.8
5222.57
4916.87
4714.18
4585.24
4509.58
4471.99
4460.5
4465.17
4477.43
4489.57
4494.55
4485.79
4457.12
4402.74
4317.23
4195.56
4033.14
3825.9
3570.3
3263.47
2903.2
2488.07
2017.45
1491.6
911.643
279.614
-401.585
-1128.23
-1895.89
-2699.57
-3533.9
-4393.55
-5273.57
-6170.11
-7081.31
-8008.76
-8959.7
-9950.89
-11015.3
-12214.8
-13666.6
-15602.1
-18514.7
-23583.7
14083
9326.29
6890.38
5514.13
4676.44
4139.8
3785.66
3549.69
3394.12
3295.1
3236.42
3206.36
3195.86
3197.52
3205
3212.69
3215.47
3208.58
3187.57
3148.26
3086.77
2999.47
2883.08
2734.67
2551.72
2332.15
2074.4
1777.41
1440.76
1064.6
649.73
197.588
-289.773
-809.722
-1359.13
-1934.47
-2532.02
-3148.06
-3779.27
-4423.18
-5078.98
-5748.65
-6438.96
-7164.81
-7955.7
-8868.51
-10015.3
-11628.2
-14224.2
-19061.7
10626.8
6378.37
4445.57
3448.46
2876.92
2523.99
2296.1
2146.13
2047.87
1985.38
1948.16
1928.75
1921.48
1921.76
1925.72
1929.93
1931.27
1926.88
1914.05
1890.28
1853.21
1800.67
1730.69
1641.5
1531.58
1399.68
1244.86
1066.49
864.3
638.388
389.228
117.672
-175.055
-487.387
-817.459
-1163.19
-1522.36
-1892.81
-2272.62
-2660.46
-3056.06
-3461.03
-3880.23
-4324.22
-4814.24
-5392.93
-6149.98
-7289.13
-9318.02
-13615
5218.44
2498.77
1582.5
1183.88
973.745
848.945
769.838
718.252
684.597
663.219
650.459
643.75
641.157
641.13
642.359
643.692
644.085
642.575
638.263
630.307
617.922
600.384
577.031
547.275
510.61
466.618
414.983
355.497
288.07
212.731
129.638
39.0743
-58.5527
-162.723
-272.818
-388.147
-507.98
-631.603
-758.393
-887.928
-1020.16
-1155.72
-1296.37
-1445.98
-1612.47
-1812.53
-2084.51
-2530.49
-3478.79
-6214.62
2502.13
1824.92
1375.51
1105.88
939.17
831.843
760.855
713.475
682.183
662.215
650.336
644.198
641.987
642.22
643.629
645.087
645.565
644.11
639.827
631.88
619.484
601.915
578.512
548.688
511.934
467.835
416.074
356.443
288.851
213.332
130.044
39.2752
-58.5639
-162.946
-273.243
-388.75
-508.718
-632.402
-759.133
-888.417
-1020.09
-1154.53
-1293.1
-1438.75
-1597.36
-1780.15
-2008.86
-2325.97
-2807.51
-3500.92
6387.59
5025.77
3953.34
3243.46
2781.08
2475.29
2270.17
2132.26
2040.85
1982.49
1947.86
1930.13
1923.99
1925.04
1929.54
1934.12
1935.72
1931.48
1918.74
1895
1857.89
1805.26
1735.13
1645.73
1535.55
1403.33
1248.13
1069.32
866.644
640.192
390.446
118.272
-175.092
-488.059
-818.739
-1165
-1524.58
-1895.23
-2274.88
-2661.99
-3055.93
-3457.68
-3870.87
-4303.58
-4771.51
-5303.65
-5952.03
-6804.33
-7973.11
-9383.54
9340.18
7666.89
6233.63
5222.28
4533.79
4065.24
3745.3
3527.92
3383.12
3290.64
3236.12
3208.79
3200.11
3203.03
3211.39
3219.69
3222.88
3216.26
3195.39
3156.13
3094.57
3007.12
2890.48
2741.73
2558.34
2338.24
2079.85
1782.14
1444.66
1067.6
651.759
198.586
-289.838
-810.852
-1361.28
-1937.52
-2535.77
-3152.16
-3783.15
-4425.94
-5079.15
-5743.76
-6424.7
-7133.25
-7891.09
-8736.79
-9735.19
-10983.8
-12577.6
-14331.9
11678.6
9858.66
8224.57
7021.14
6173.37
5581.77
5170.88
4888.8
4700.04
4579.7
4509.56
4475.61
4466.59
4472.97
4486.41
4499.39
4504.94
4496.54
4468.07
4413.75
4328.15
4206.26
4043.5
3835.78
3579.57
3271.98
2910.83
2494.68
2022.92
1495.8
914.48
281.006
-401.686
-1129.83
-1898.93
-2703.88
-3539.23
-4399.42
-5279.24
-6174.37
-7082.24
-8003.16
-8942.14
-9911.52
-10935.2
-12054.5
-13335.9
-14871.4
-16730.2
-18663.4
13614
11720.4
9973.61
8651.05
7696.19
7016.75
6538.27
6207.04
5984.86
5843.93
5763.29
5726.44
5719.78
5731.68
5751.78
5770.66
5779.55
5770.2
5734.83
5666.06
5556.99
5401.2
5192.83
4926.66
4598.18
4203.7
3740.41
3206.5
2601.19
1924.84
1178.95
366.192
-509.619
-1443.58
-2429.84
-3461.71
-4532.02
-5633.39
-6758.73
-7901.94
-9058.79
-10228.2
-11414.2
-12628.4
-13894.1
-15251.6
-16763.6
-18512.7
-20548.1
-22587.3
15273.3
13340.4
11529.2
10133.5
9108.96
8369.75
7843.98
7478.13
7232.9
7078.86
6993.19
6957.46
6956.21
6975.93
7004.49
7030.71
7044.1
7034.77
6993.32
6910.85
6779
6589.99
6336.69
6012.78
5612.76
5132.16
4567.59
3916.83
3178.99
2354.52
1445.3
454.639
-612.747
-1750.79
-2952.2
-4208.7
-5511.27
-6850.58
-8217.49
-9603.84
-11003.3
-12413
-13834.8
-15278.7
-16765.5
-18332.4
-20037.2
-21953.7
-24117.2
-26227.9
16733.7
14779
12930.5
11490.6
10422.1
9644.3
9087.77
8699.87
8441.08
8281.05
8195.71
8165.19
8172.47
8202.44
8241.37
8276.45
8295.6
8287.36
8240.77
8145.47
7991.65
7770.22
7472.82
7092.01
6621.39
6055.68
5390.91
4624.52
3755.47
2784.35
1713.42
546.639
-710.329
-2050.22
-3464.3
-4942.59
-6474.16
-8047.61
-9651.6
-11275.7
-12911.2
-14552.6
-16199.7
-17859.5
-19550
-21304.4
-23175.4
-25229.9
-27494.1
-29658.6
18043.6
16076.7
14206.8
12740.9
11646.2
10845.4
10271.1
9871.54
9607.38
9447.76
9367.73
9346.3
9365.13
9407.75
9458.95
9504.44
9530.66
9524.61
9473.89
9366.68
9191.81
8938.88
8598.35
8161.71
7621.61
6972.04
6208.46
5327.96
4329.39
3213.48
1982.89
642.264
-801.787
-2340.77
-3964.45
-5661.11
-7417.85
-9221.1
-11057.2
-12913.1
-14777.8
-16642.9
-18505.3
-20369.1
-22248.9
-24174.2
-26192.8
-28366.1
-30714.7
-32923.1
19234.3
17260.8
15379.3
13899.2
12790.6
11978.1
11395.9
10993
10730.3
10576.6
10506.3
10497.5
10530.7
10588.2
10653.4
10710.8
10745.4
10742.6
10688.8
10570.7
10375.8
10092.4
9709.84
9218.59
8610.39
7878.48
7017.78
6025.06
4899.08
3640.7
2253.01
741.353
-886.703
-2621.41
-4451.01
-6361.99
-8339.45
-10367.6
-12430.3
-14511.9
-16598.7
-18679.5
-20748.1
-22805.5
-24862.9
-26945.9
-29098.6
-31378.1
-33800.5
-36046.9
20326.8
18350.1
16463.2
14976.9
13862.6
13046.6
12463.9
12064.3
11808.6
11665.4
11608.6
11615.4
11665.3
11739.7
11820.7
11891.3
11935.4
11937
11881.1
11753
11539.1
11226.4
10803.2
10258.7
9584.05
8771.64
7815.89
6713.27
5462.43
4064.44
2522.78
843.508
-964.817
-2891.19
-4922.31
-7042.87
-9235.92
-11483.3
-13766.6
-16067.4
-18369.1
-20657.8
-22924
-25165.6
-27390.6
-29621.1
-31897.7
-34274.1
-36763.2
-39043.6
21335.2
19357.5
17469.2
15981.8
14867.8
14054.1
13476.6
13085.2
12840.8
12711.8
12671.4
12696.3
12765.1
12858
12956
13041.1
13095.7
13102.7
13045.6
12908.7
12676.9
12336.1
11873.6
11277.6
10538.4
9647.6
8599.26
7389.49
6016.91
4482.72
2790.87
948.106
-1036.02
-3149.23
-5376.7
-7701.31
-10104
-12564.5
-15061.6
-17574.6
-20083.7
-22572.3
-25027.9
-27445.1
-29828.8
-32198.2
-34590.6
-37056.8
-39607.5
-41919.2
22268.7
20291.6
18404.5
16919.7
15810
15002.8
14434.5
14055
13825.1
13713.1
13691.5
13736.4
13825.6
13938.3
14054.5
14155
14220.9
14234.1
14176.8
14031.9
13783.4
13416
12915.7
12270.1
11468.4
10501.9
9363.84
8050.22
6559.55
4893.24
3055.68
1054.31
-1100.33
-3394.71
-5812.48
-8334.71
-10940.4
-13606.8
-16310.4
-19027.8
-21736.5
-24416.8
-27053.4
-29638
-32172.4
-34673
-37174.2
-39724.6
-42332.6
-44673.3
23133.7
21158
19274
17794.1
16691.4
15893.7
15337.3
14972.3
14759.4
14666.3
14665.3
14731.6
14842.3
14975.6
15110.7
15227.2
15305.2
15325.2
15268.5
15116.7
14852.6
14459.9
13923.7
13230.6
12369
11329.5
10105.1
8691.47
7087.02
5293.38
3315.35
1161.1
-1157.88
-3626.83
-6227.89
-8940.38
-11741.2
-14605.6
-17507.5
-20420.9
-23320.6
-26184.2
-28993.4
-31737.1
-34414.4
-37038.9
-39642.7
-42272.1
-44933.8
-47301.8
23933.9
21960.3
20080.5
18607
17513.2
16726.8
16184.3
15835.6
15641.1
15568.2
15588.7
15677.2
15810
15964.5
16118.9
16251.8
16342.2
16369.6
16314.1
16156.2
15877.8
15461.4
14891.1
14152.8
13234.1
12125.1
10818.2
9308.95
7595.68
5680.22
3567.81
1267.29
-1208.91
-3844.83
-6621.14
-9515.46
-12502.8
-15556.1
-18647.1
-21747.2
-24828.7
-27866.4
-30839.4
-33733.7
-36546
-39287.3
-41987.7
-44691.3
-47403.4
-49796.8
24671.4
22700.2
20825.3
19359.2
18275.4
17501.5
16973.9
16642.3
16467.1
16415
16457.5
16568.4
16723.5
16899.3
17073
17222.3
17325.3
17360.4
17306.7
17143.6
16852
16413.5
15811.3
15030.4
14057.8
12882.9
11498
9898.06
8081.64
6050.66
3810.81
1371.57
-1253.72
-4047.95
-6990.39
-10057
-13221
-16453.2
-19723.1
-22999.7
-26252.9
-29454.8
-32582
-35618.1
-38557.2
-41408.2
-44199
-46972
-49731.2
-52148.5
25347
23378.5
21508.8
20050.6
18977.2
18216.3
17704
17390
17234.1
17202.9
17267.2
17400.4
17577.4
17774
17966.7
18132.3
18247.8
18290.7
18239.1
18071.7
17768.1
17309.1
16677.2
15856.5
14833.5
13597.1
12138.9
10454
8540.82
6401.45
4041.99
1472.55
-1292.67
-4235.46
-7333.78
-10562
-13891.6
-17291.5
-20729
-24170.8
-27584.6
-30940
-34211.3
-37379.8
-40437.1
-43390.2
-46265
-49102.6
-51905.6
-54344.9
25960.6
23994.8
22130.4
20680.2
19617.3
18869.3
18372.3
18075.5
17938.6
17927.8
18013.3
18167.9
18366.1
18582.8
18793.8
18975
19102.6
19153.3
19104.2
18933
18618.7
18141.1
17481.9
16624.6
15555
14261.5
12735.6
10972
8969.1
6729.27
4258.93
1568.79
-1326.16
-4406.67
-7649.45
-11027.5
-14510.5
-18065.6
-21658.3
-25253
-28815.3
-32312.6
-35717
-39007.5
-42173.9
-45221
-48173.4
-51070.4
-53913.6
-56373.3
26511.4
24548.2
22689
21246.5
20193.8
19458.4
18975.9
18695.7
18577
18585.4
18691
18866
19084.1
19319.8
19548
19744
19883.1
19941.3
19894.8
19720.6
19396.6
18902.2
18218.3
17327.7
16215.7
14870.3
13282.5
11447.1
9362.36
7030.79
4459.2
1658.83
-1354.59
-4560.87
-7935.57
-11450.4
-15073.4
-18770.3
-22504.4
-26238.6
-29936.3
-33562.9
-37088.5
-40490.1
-43755.7
-46888.4
-49911.2
-52862.2
-55742
-58220.1
26998.1
25037.3
23183.1
21747.9
20704.7
19980.9
19512.2
19247.4
19145.4
19171.7
19295.8
19489.6
19726
19979.2
20223.3
20432.9
20582.7
20647.9
20604
20427.3
20095
19585.7
18879.8
17959.5
16809.5
15417.6
13774.5
11874.7
9716.62
7302.83
4640.46
1741.25
-1378.39
-4697.43
-8190.4
-11827.8
-15576.4
-19400.2
-23261.1
-27120.2
-30939.1
-34681.5
-38315.5
-41816.5
-45170.8
-48380
-51465.7
-54464.9
-57377.3
-59871.9
27419.3
25460.7
23610.9
22182.3
21147.8
20434.6
19978.2
19727.2
19640.4
19682.8
19823.5
20034
20286.9
20555.6
20814
21035.8
21195.2
21266.8
21225.4
21046.6
20707.2
20185
19459.9
18513.7
17330.7
15898.1
14206.6
12250.5
10028.1
7542.33
4800.48
1814.71
-1397.95
-4815.73
-8412.27
-12157
-16015.5
-19950.4
-23922.3
-27890.8
-31815.7
-35659.3
-39388.1
-42976
-46407.8
-49683.9
-52824.5
-55865.8
-58806.8
-61315.7
27773.3
25816.7
23970.8
22547.9
21520.9
20817
20371.2
20132.3
20058.5
20114.8
20270
20494.9
20762
21044.3
21314.8
21547.2
21715
21792.2
21753
21572.7
21227.3
20694.3
19953
18984.8
17773.8
16306.7
14574.2
12570.3
10293.4
7746.54
4937.22
1877.99
-1413.63
-4915.23
-8599.67
-12435.5
-16387.2
-20416.5
-24482.6
-28543.7
-32558.6
-36488
-40297.2
-43958.8
-47456.3
-50789
-53976.2
-57053.2
-60018.3
-62539.5
28058.7
26103.7
24261
22842.9
21822.1
21125.8
20688.9
20459.9
20397
20464.7
20631.7
20868.6
21147.4
21440.7
21721.4
21962.5
22137.2