/*--------------------------------*- C++ -*----------------------------------*\
| =========                 |                                                 |
| \\      /  F ield         | OpenFOAM: The Open Source CFD Toolbox           |
|  \\    /   O peration     | Version:  5.x                                   |
|   \\  /    A nd           | Web:      www.OpenFOAM.org                      |
|    \\/     M anipulation  |                                                 |
\*---------------------------------------------------------------------------*/
FoamFile
{
    version     2.0;
    format      ascii;
    class       volScalarField;
    location    "0.7";
    object      gradTz;
}
// * * * * * * * * * * * * * * * * * * * * * * * * * * * * * * * * * * * * * //

dimensions      [0 -1 0 1 0 0 0];

internalField   nonuniform List<scalar> 
25000
(
-6334.07
-6850.88
-7000.44
-7053.14
-7074.89
-7084.8
-7089.45
-7091.47
-7092.07
-7091.83
-7091.08
-7090
-7088.7
-7087.24
-7085.68
-7084.04
-7082.35
-7080.62
-7078.88
-7077.14
-7075.41
-7073.72
-7072.07
-7070.5
-7069.02
-7067.64
-7066.4
-7065.31
-7064.39
-7063.67
-7063.16
-7062.88
-7062.85
-7063.08
-7063.57
-7064.34
-7065.35
-7066.61
-7068.06
-7069.64
-7071.22
-7072.62
-7073.5
-7073.24
-7070.61
-7062.96
-7043.65
-6993.55
-6846.71
-6332.67
-6850.89
-7840.8
-8184.39
-8319.73
-8379.07
-8406.95
-8420.21
-8426
-8427.65
-8426.87
-8424.58
-8421.32
-8417.4
-8413.03
-8408.33
-8403.41
-8398.34
-8393.16
-8387.93
-8382.71
-8377.53
-8372.45
-8367.53
-8362.81
-8358.36
-8354.24
-8350.51
-8347.24
-8344.49
-8342.32
-8340.79
-8339.96
-8339.87
-8340.55
-8342.03
-8344.32
-8347.38
-8351.15
-8355.51
-8360.26
-8365.05
-8369.32
-8372.1
-8371.6
-8364.41
-8343.28
-8291.27
-8163.73
-7828.27
-6846.69
-7000.46
-8184.44
-8631.93
-8820.56
-8907.27
-8949.21
-8969.43
-8978.22
-8980.55
-8979.04
-8975.11
-8969.61
-8963.05
-8955.75
-8947.92
-8939.72
-8931.26
-8922.64
-8913.93
-8905.22
-8896.6
-8888.14
-8879.93
-8872.07
-8864.66
-8857.79
-8851.58
-8846.13
-8841.55
-8837.93
-8835.38
-8833.99
-8833.84
-8834.98
-8837.46
-8841.27
-8846.37
-8852.67
-8859.97
-8867.94
-8876.05
-8883.38
-8888.41
-8888.43
-8878.32
-8847.65
-8773.15
-8597.51
-8163.55
-6993.46
-7053.2
-8319.88
-8820.71
-9041.02
-9145.78
-9197.59
-9222.8
-9233.62
-9236.13
-9233.61
-9227.9
-9220.09
-9210.84
-9200.59
-9189.62
-9178.14
-9166.3
-9154.23
-9142.05
-9129.87
-9117.8
-9105.97
-9094.49
-9083.49
-9073.12
-9063.51
-9054.82
-9047.19
-9040.77
-9035.71
-9032.15
-9030.2
-9029.98
-9031.58
-9035.04
-9040.38
-9047.54
-9056.39
-9066.68
-9077.95
-9089.5
-9100.16
-9107.96
-9109.47
-9098.4
-9062.35
-8974.68
-8772.55
-8290.66
-7043.41
-7075.02
-8379.43
-8907.74
-9146.15
-9262.03
-9320.16
-9348.51
-9360.37
-9362.52
-9358.7
-9351.04
-9340.82
-9328.84
-9315.61
-9301.49
-9286.73
-9271.51
-9256.01
-9240.37
-9224.72
-9209.23
-9194.03
-9179.28
-9165.16
-9151.84
-9139.5
-9128.33
-9118.53
-9110.28
-9103.77
-9099.19
-9096.68
-9096.4
-9098.45
-9102.9
-9109.77
-9119
-9130.42
-9143.73
-9158.4
-9173.56
-9187.84
-9198.93
-9202.92
-9192.74
-9154.84
-9060.93
-8845.86
-8341.9
-7062.44
-7085.04
-8407.63
-8950.17
-9198.6
-9320.88
-9382.64
-9412.59
-9424.6
-9425.89
-9420.48
-9410.7
-9397.98
-9383.22
-9367
-9349.73
-9331.69
-9313.11
-9294.19
-9275.1
-9256.01
-9237.1
-9218.56
-9200.56
-9183.33
-9167.07
-9152
-9138.37
-9126.4
-9116.32
-9108.37
-9102.77
-9099.7
-9099.35
-9101.85
-9107.29
-9115.69
-9126.99
-9141.01
-9157.39
-9175.53
-9194.47
-9212.65
-9227.53
-9234.86
-9227.09
-9190.04
-9094.57
-8874.63
-8361.81
-7069.68
-7089.85
-8421.35
-8971.14
-9224.79
-9350.39
-9413.84
-9444.21
-9455.65
-9455.65
-9448.39
-9436.35
-9421.06
-9403.48
-9384.26
-9363.83
-9342.53
-9320.61
-9298.29
-9275.78
-9253.27
-9230.97
-9209.1
-9187.88
-9167.55
-9148.36
-9130.59
-9114.51
-9100.38
-9088.48
-9079.1
-9072.47
-9068.84
-9068.42
-9071.36
-9077.78
-9087.71
-9101.09
-9117.72
-9137.2
-9158.9
-9181.74
-9204.06
-9223.15
-9234.51
-9230.32
-9196.01
-9102.05
-8882.02
-8367.29
-7071.73
-7092.09
-8427.76
-8980.94
-9236.97
-9363.89
-9427.7
-9457.62
-9467.96
-9466.31
-9457
-9442.59
-9424.66
-9404.24
-9382.01
-9358.45
-9333.91
-9308.68
-9283
-9257.09
-9231.19
-9205.54
-9180.37
-9155.94
-9132.55
-9110.47
-9090.01
-9071.49
-9055.22
-9041.52
-9030.7
-9023.06
-9018.87
-9018.37
-9021.75
-9029.14
-9040.59
-9056.04
-9075.28
-9097.89
-9123.19
-9150.04
-9176.69
-9200.3
-9216.22
-9216.44
-9186.17
-9095.67
-8878.35
-8365.53
-7071.23
-7092.96
-8430.23
-8984.61
-9241.29
-9368.26
-9431.54
-9460.4
-9469.23
-9465.7
-9454.18
-9437.31
-9416.71
-9393.45
-9368.23
-9341.56
-9313.82
-9285.31
-9256.3
-9227.05
-9197.8
-9168.83
-9140.41
-9112.83
-9086.4
-9061.46
-9038.35
-9017.42
-8999.03
-8983.54
-8971.3
-8962.65
-8957.89
-8957.31
-8961.12
-8969.47
-8982.42
-8999.93
-9021.77
-9047.51
-9076.44
-9107.36
-9138.46
-9166.81
-9187.65
-9192.84
-9167.46
-9081.64
-8868.69
-8359.92
-7069.39
-7093.06
-8430.48
-8984.78
-9241.06
-9367.28
-9429.44
-9456.84
-9463.88
-9458.3
-9444.49
-9425.11
-9401.83
-9375.74
-9347.56
-9317.82
-9286.92
-9255.19
-9222.91
-9190.37
-9157.83
-9125.6
-9093.98
-9063.29
-9033.88
-9006.12
-8980.39
-8957.09
-8936.61
-8919.35
-8905.71
-8896.06
-8890.75
-8890.08
-8894.3
-8903.59
-8918.03
-8937.56
-8961.98
-8990.83
-9023.38
-9058.4
-9094.01
-9127.23
-9153.21
-9163.72
-9143.75
-9063.34
-8855.73
-8352.2
-7066.83
-7092.73
-8429.44
-8982.91
-9238.18
-9363.15
-9423.83
-9449.5
-9454.59
-9446.85
-9430.69
-9408.8
-9382.86
-9353.97
-9322.88
-9290.13
-9256.14
-9221.25
-9185.78
-9150.01
-9114.26
-9078.84
-9044.08
-9010.35
-8978.02
-8947.5
-8919.21
-8893.57
-8871.04
-8852.05
-8837.03
-8826.4
-8820.53
-8819.77
-8824.39
-8834.59
-8850.48
-8872
-8898.95
-8930.88
-8967.01
-9006.11
-9046.24
-9084.37
-9115.59
-9131.6
-9117.32
-9042.73
-8840.99
-8343.36
-7063.88
-7092.16
-8427.68
-8979.88
-9233.76
-9357.2
-9416.17
-9439.98
-9443.03
-9433.08
-9414.57
-9390.19
-9361.63
-9330
-9296.06
-9260.38
-9223.39
-9185.43
-9146.84
-9107.95
-9069.06
-9030.54
-8992.73
-8956.03
-8920.86
-8887.65
-8856.85
-8828.95
-8804.41
-8783.73
-8767.36
-8755.76
-8749.35
-8748.49
-8753.49
-8764.59
-8781.88
-8805.34
-8834.77
-8869.7
-8909.35
-8952.46
-8997.06
-9040.07
-9076.55
-9098.12
-9089.64
-9021.03
-8825.42
-8333.98
-7060.75
-7091.44
-8425.51
-8976.22
-9228.51
-9350.26
-9407.43
-9429.3
-9430.29
-9418.14
-9397.31
-9370.49
-9339.37
-9305.09
-9268.4
-9229.88
-9189.97
-9149.05
-9107.46
-9065.53
-9023.62
-8982.1
-8941.34
-8901.78
-8863.85
-8828.03
-8794.82
-8764.71
-8738.24
-8715.9
-8698.23
-8685.69
-8678.74
-8677.78
-8683.15
-8695.1
-8713.74
-8739.08
-8770.91
-8808.76
-8851.83
-8898.85
-8947.82
-8995.63
-9037.28
-9064.35
-9061.65
-8999.05
-8809.6
-8324.45
-7057.57
-7090.66
-8423.16
-8972.26
-9222.89
-9342.89
-9398.22
-9418.15
-9417.1
-9402.81
-9379.72
-9350.54
-9316.96
-9280.12
-9240.79
-9199.55
-9156.85
-9113.08
-9068.61
-9023.78
-8978.97
-8934.56
-8890.97
-8848.66
-8808.09
-8769.77
-8734.23
-8702.01
-8673.66
-8649.75
-8630.8
-8617.35
-8609.88
-8608.83
-8614.54
-8627.3
-8647.25
-8674.38
-8708.51
-8749.16
-8795.53
-8846.33
-8899.53
-8951.98
-8998.66
-9031.1
-9034.05
-8977.34
-8793.97
-8315.01
-7054.41
-7089.87
-8420.77
-8968.23
-9217.18
-9335.45
-9388.97
-9407.01
-9403.98
-9387.62
-9362.37
-9330.93
-9295.01
-9255.73
-9213.89
-9170.06
-9124.71
-9078.25
-9031.03
-8983.44
-8935.87
-8888.73
-8842.45
-8797.52
-8754.43
-8713.73
-8675.98
-8641.74
-8611.62
-8586.19
-8566.04
-8551.72
-8543.75
-8542.59
-8548.62
-8562.15
-8583.33
-8612.17
-8648.48
-8691.8
-8741.32
-8795.72
-8852.95
-8909.86
-8961.35
-8998.95
-9007.35
-8956.32
-8778.82
-8305.87
-7051.36
-7089.08
-8418.42
-8964.29
-9211.61
-9328.2
-9379.98
-9396.21
-9391.3
-9372.98
-9345.68
-9312.12
-9273.99
-9232.42
-9188.21
-9141.96
-9094.12
-9045.11
-8995.32
-8945.14
-8894.97
-8845.26
-8796.45
-8749.05
-8703.6
-8660.66
-8620.81
-8584.68
-8552.87
-8526.02
-8504.73
-8489.59
-8481.14
-8479.88
-8486.21
-8500.45
-8522.78
-8553.23
-8591.59
-8637.43
-8689.9
-8747.69
-8808.74
-8869.85
-8925.91
-8968.39
-8981.95
-8936.32
-8764.4
-8297.17
-7048.44
-7088.34
-8416.18
-8960.54
-9206.32
-9321.32
-9371.47
-9386
-9379.33
-9359.18
-9329.98
-9294.44
-9254.25
-9210.56
-9164.16
-9115.65
-9065.5
-9014.13
-8961.96
-8909.37
-8856.79
-8804.68
-8753.52
-8703.84
-8656.18
-8611.16
-8569.37
-8531.47
-8498.1
-8469.92
-8447.57
-8431.65
-8422.76
-8421.4
-8428
-8442.9
-8466.3
-8498.23
-8538.5
-8586.67
-8641.89
-8702.84
-8767.44
-8832.46
-8892.77
-8939.81
-8958.19
-8917.6
-8750.9
-8289.02
-7045.72
-7087.65
-8414.1
-8957.06
-9201.41
-9314.95
-9363.59
-9376.57
-9368.28
-9346.45
-9315.51
-9278.16
-9236.09
-9190.46
-9142.06
-9091.48
-9039.22
-8985.7
-8931.34
-8876.55
-8821.77
-8767.47
-8714.16
-8662.38
-8612.71
-8565.77
-8522.21
-8482.69
-8447.89
-8418.49
-8395.16
-8378.54
-8369.23
-8367.77
-8374.62
-8390.12
-8414.5
-8447.78
-8489.8
-8540.09
-8597.83
-8661.67
-8729.52
-8798.12
-8862.33
-8913.55
-8936.36
-8900.4
-8738.5
-8281.52
-7043.21
-7087.03
-8412.22
-8953.91
-9196.98
-9309.19
-9356.47
-9368.05
-9358.31
-9334.97
-9302.47
-9263.49
-9219.74
-9172.37
-9122.17
-9069.74
-9015.58
-8960.13
-8903.81
-8847.05
-8790.29
-8734.03
-8678.79
-8625.12
-8573.65
-8524.99
-8479.83
-8438.85
-8402.76
-8372.27
-8348.06
-8330.8
-8321.12
-8319.57
-8326.63
-8342.67
-8367.91
-8402.41
-8445.99
-8498.19
-8558.19
-8624.63
-8695.39
-8767.22
-8834.94
-8889.91
-8916.7
-8884.91
-8727.32
-8274.78
-7040.96
-7086.48
-8410.57
-8951.14
-9193.07
-9304.13
-9350.22
-9360.56
-9349.54
-9324.89
-9291.01
-9250.61
-9205.39
-9156.5
-9104.72
-9050.67
-8994.86
-8937.71
-8879.67
-8821.18
-8762.69
-8704.7
-8647.76
-8592.45
-8539.39
-8489.23
-8442.66
-8400.41
-8363.19
-8331.73
-8306.74
-8288.92
-8278.91
-8277.28
-8284.53
-8301.04
-8327.04
-8362.6
-8407.54
-8461.42
-8523.4
-8592.11
-8665.43
-8740.09
-8810.88
-8869.15
-8899.44
-8871.31
-8717.51
-8268.85
-7038.98
-7086.01
-8409.16
-8948.79
-9189.75
-9299.82
-9344.9
-9354.19
-9342.09
-9316.31
-9281.28
-9239.67
-9193.2
-9143.01
-9089.9
-9034.47
-8977.25
-8918.67
-8859.17
-8799.2
-8739.24
-8679.79
-8621.41
-8564.7
-8510.28
-8458.84
-8411.09
-8367.75
-8329.56
-8297.28
-8271.64
-8253.34
-8243.04
-8241.34
-8248.75
-8265.65
-8292.3
-8328.75
-8374.86
-8430.16
-8493.82
-8564.46
-8639.95
-8717.01
-8790.42
-8851.5
-8884.76
-8859.74
-8709.17
-8263.81
-7037.29
-7085.63
-8408.02
-8946.87
-9187.05
-9296.32
-9340.57
-9349.02
-9336.04
-9309.35
-9273.37
-9230.78
-9183.29
-9132.05
-9077.85
-9021.31
-8962.94
-8903.19
-8842.51
-8781.35
-8720.19
-8659.55
-8600
-8542.15
-8486.64
-8434.16
-8385.43
-8341.2
-8302.23
-8269.29
-8243.11
-8224.42
-8213.89
-8212.13
-8219.66
-8236.88
-8264.05
-8301.24
-8348.29
-8404.75
-8469.77
-8541.98
-8619.24
-8698.25
-8773.78
-8837.14
-8872.81
-8850.32
-8702.38
-8259.71
-7035.92
-7085.34
-8407.15
-8945.41
-9185
-9293.66
-9337.28
-9345.09
-9331.44
-9304.06
-9267.36
-9224.03
-9175.78
-9123.73
-9068.71
-9011.33
-8952.09
-8891.45
-8829.87
-8767.8
-8705.73
-8644.19
-8583.75
-8525.03
-8468.68
-8415.41
-8365.95
-8321.05
-8281.49
-8248.03
-8221.44
-8202.45
-8191.75
-8189.95
-8197.57
-8215.04
-8242.6
-8280.35
-8328.11
-8385.44
-8451.5
-8524.9
-8603.5
-8684
-8761.14
-8826.23
-8863.74
-8843.17
-8697.22
-8256.6
-7034.88
-7085.14
-8406.56
-8944.44
-9183.62
-9291.87
-9335.08
-9342.45
-9328.35
-9300.51
-9263.33
-9219.5
-9170.72
-9118.14
-9062.57
-9004.61
-8944.79
-8883.55
-8821.37
-8758.69
-8696.01
-8633.86
-8572.82
-8513.52
-8456.61
-8402.81
-8352.85
-8307.5
-8267.53
-8233.74
-8206.87
-8187.68
-8176.86
-8175.03
-8182.72
-8200.35
-8228.18
-8266.29
-8314.54
-8372.46
-8439.21
-8513.41
-8592.92
-8674.41
-8752.64
-8818.89
-8857.64
-8838.37
-8693.75
-8254.5
-7034.18
-7085.05
-8406.27
-8943.94
-9182.93
-9290.97
-9333.97
-9341.12
-9326.8
-9298.72
-9261.3
-9217.22
-9168.18
-9115.33
-9059.48
-9001.24
-8941.12
-8879.59
-8817.09
-8754.11
-8691.12
-8628.67
-8567.33
-8507.74
-8450.55
-8396.48
-8346.27
-8300.69
-8260.52
-8226.55
-8199.55
-8180.26
-8169.38
-8167.53
-8175.25
-8192.96
-8220.92
-8259.23
-8307.71
-8365.93
-8433.03
-8507.64
-8587.6
-8669.59
-8748.36
-8815.21
-8854.57
-8835.95
-8692.01
-8253.45
-7033.82
-7085.05
-8406.27
-8943.94
-9182.93
-9290.97
-9333.97
-9341.12
-9326.8
-9298.72
-9261.3
-9217.22
-9168.18
-9115.33
-9059.48
-9001.24
-8941.12
-8879.59
-8817.09
-8754.11
-8691.12
-8628.67
-8567.33
-8507.73
-8450.55
-8396.48
-8346.27
-8300.69
-8260.52
-8226.55
-8199.55
-8180.26
-8169.38
-8167.53
-8175.25
-8192.96
-8220.93
-8259.23
-8307.71
-8365.93
-8433.03
-8507.64
-8587.6
-8669.59
-8748.37
-8815.21
-8854.57
-8835.95
-8692.01
-8253.45
-7033.82
-7085.14
-8406.56
-8944.44
-9183.62
-9291.87
-9335.08
-9342.45
-9328.35
-9300.51
-9263.33
-9219.5
-9170.72
-9118.14
-9062.57
-9004.61
-8944.79
-8883.55
-8821.37
-8758.69
-8696.01
-8633.86
-8572.82
-8513.52
-8456.61
-8402.81
-8352.85
-8307.5
-8267.53
-8233.74
-8206.87
-8187.69
-8176.86
-8175.03
-8182.72
-8200.35
-8228.18
-8266.3
-8314.54
-8372.46
-8439.21
-8513.42
-8592.92
-8674.41
-8752.64
-8818.9
-8857.64
-8838.37
-8693.75
-8254.5
-7034.18
-7085.34
-8407.15
-8945.41
-9185
-9293.66
-9337.28
-9345.09
-9331.44
-9304.06
-9267.36
-9224.03
-9175.78
-9123.73
-9068.71
-9011.32
-8952.08
-8891.45
-8829.87
-8767.8
-8705.73
-8644.19
-8583.75
-8525.03
-8468.68
-8415.41
-8365.95
-8321.05
-8281.49
-8248.03
-8221.45
-8202.46
-8191.76
-8189.95
-8197.58
-8215.05
-8242.61
-8280.35
-8328.12
-8385.45
-8451.51
-8524.91
-8603.51
-8684.01
-8761.15
-8826.24
-8863.75
-8843.18
-8697.22
-8256.6
-7034.88
-7085.63
-8408.02
-8946.87
-9187.05
-9296.32
-9340.57
-9349.02
-9336.04
-9309.35
-9273.37
-9230.78
-9183.29
-9132.05
-9077.85
-9021.31
-8962.94
-8903.19
-8842.51
-8781.35
-8720.19
-8659.55
-8600
-8542.15
-8486.64
-8434.16
-8385.43
-8341.2
-8302.24
-8269.29
-8243.11
-8224.42
-8213.89
-8212.14
-8219.67
-8236.89
-8264.06
-8301.25
-8348.3
-8404.76
-8469.78
-8541.99
-8619.25
-8698.26
-8773.79
-8837.15
-8872.83
-8850.33
-8702.38
-8259.72
-7035.92
-7086.01
-8409.16
-8948.79
-9189.75
-9299.82
-9344.89
-9354.19
-9342.09
-9316.31
-9281.28
-9239.67
-9193.2
-9143.01
-9089.89
-9034.47
-8977.24
-8918.66
-8859.17
-8799.2
-8739.24
-8679.79
-8621.41
-8564.7
-8510.28
-8458.84
-8411.09
-8367.75
-8329.56
-8297.28
-8271.64
-8253.34
-8243.05
-8241.35
-8248.76
-8265.66
-8292.31
-8328.77
-8374.88
-8430.18
-8493.84
-8564.48
-8639.97
-8717.03
-8790.44
-8851.51
-8884.77
-8859.75
-8709.18
-8263.82
-7037.29
-7086.48
-8410.57
-8951.14
-9193.07
-9304.13
-9350.22
-9360.56
-9349.54
-9324.88
-9291.01
-9250.61
-9205.39
-9156.49
-9104.72
-9050.67
-8994.85
-8937.71
-8879.67
-8821.17
-8762.68
-8704.7
-8647.76
-8592.45
-8539.39
-8489.23
-8442.66
-8400.41
-8363.19
-8331.73
-8306.75
-8288.93
-8278.92
-8277.29
-8284.54
-8301.05
-8327.05
-8362.61
-8407.56
-8461.44
-8523.42
-8592.13
-8665.45
-8740.11
-8810.9
-8869.17
-8899.46
-8871.32
-8717.52
-8268.86
-7038.98
-7087.03
-8412.22
-8953.91
-9196.97
-9309.19
-9356.47
-9368.05
-9358.31
-9334.97
-9302.46
-9263.49
-9219.74
-9172.37
-9122.17
-9069.74
-9015.58
-8960.13
-8903.81
-8847.04
-8790.29
-8734.03
-8678.78
-8625.12
-8573.64
-8524.99
-8479.83
-8438.86
-8402.77
-8372.27
-8348.06
-8330.81
-8321.13
-8319.58
-8326.65
-8342.69
-8367.93
-8402.43
-8446.01
-8498.22
-8558.21
-8624.65
-8695.41
-8767.24
-8834.96
-8889.93
-8916.72
-8884.93
-8727.34
-8274.79
-7040.96
-7087.65
-8414.1
-8957.06
-9201.41
-9314.95
-9363.59
-9376.57
-9368.28
-9346.44
-9315.51
-9278.15
-9236.09
-9190.46
-9142.05
-9091.48
-9039.21
-8985.7
-8931.33
-8876.54
-8821.77
-8767.47
-8714.16
-8662.38
-8612.71
-8565.78
-8522.21
-8482.69
-8447.89
-8418.5
-8395.17
-8378.55
-8369.24
-8367.79
-8374.64
-8390.14
-8414.51
-8447.8
-8489.82
-8540.11
-8597.86
-8661.7
-8729.54
-8798.15
-8862.36
-8913.57
-8936.38
-8900.42
-8738.51
-8281.53
-7043.22
-7088.34
-8416.18
-8960.54
-9206.32
-9321.32
-9371.47
-9386
-9379.33
-9359.17
-9329.98
-9294.43
-9254.25
-9210.56
-9164.16
-9115.64
-9065.49
-9014.13
-8961.95
-8909.36
-8856.79
-8804.68
-8753.52
-8703.83
-8656.18
-8611.16
-8569.37
-8531.47
-8498.11
-8469.93
-8447.57
-8431.66
-8422.77
-8421.41
-8428.02
-8442.92
-8466.32
-8498.25
-8538.53
-8586.69
-8641.92
-8702.87
-8767.47
-8832.49
-8892.8
-8939.83
-8958.22
-8917.62
-8750.92
-8289.03
-7045.72
-7089.08
-8418.42
-8964.29
-9211.61
-9328.2
-9379.98
-9396.21
-9391.3
-9372.97
-9345.68
-9312.11
-9273.98
-9232.42
-9188.21
-9141.95
-9094.11
-9045.1
-8995.32
-8945.14
-8894.97
-8845.25
-8796.44
-8749.05
-8703.6
-8660.66
-8620.81
-8584.68
-8552.88
-8526.03
-8504.74
-8489.6
-8481.15
-8479.89
-8486.23
-8500.47
-8522.8
-8553.25
-8591.62
-8637.45
-8689.93
-8747.72
-8808.77
-8869.88
-8925.94
-8968.42
-8981.98
-8936.34
-8764.41
-8297.18
-7048.45
-7089.87
-8420.77
-8968.23
-9217.18
-9335.45
-9388.97
-9407.01
-9403.98
-9387.62
-9362.37
-9330.93
-9295
-9255.73
-9213.88
-9170.06
-9124.71
-9078.24
-9031.03
-8983.44
-8935.87
-8888.72
-8842.45
-8797.52
-8754.43
-8713.73
-8675.98
-8641.74
-8611.62
-8586.2
-8566.05
-8551.73
-8543.76
-8542.6
-8548.64
-8562.17
-8583.35
-8612.2
-8648.51
-8691.83
-8741.35
-8795.75
-8852.99
-8909.89
-8961.39
-8998.98
-9007.38
-8956.34
-8778.83
-8305.88
-7051.36
-7090.66
-8423.16
-8972.26
-9222.89
-9342.89
-9398.22
-9418.15
-9417.1
-9402.8
-9379.72
-9350.53
-9316.96
-9280.11
-9240.78
-9199.54
-9156.84
-9113.08
-9068.6
-9023.77
-8978.96
-8934.55
-8890.97
-8848.66
-8808.09
-8769.77
-8734.23
-8702.01
-8673.67
-8649.75
-8630.81
-8617.37
-8609.9
-8608.84
-8614.56
-8627.32
-8647.27
-8674.41
-8708.54
-8749.19
-8795.57
-8846.36
-8899.56
-8952.01
-8998.69
-9031.13
-9034.08
-8977.36
-8793.98
-8315.03
-7054.42
-7091.44
-8425.51
-8976.22
-9228.51
-9350.26
-9407.43
-9429.3
-9430.28
-9418.14
-9397.31
-9370.49
-9339.37
-9305.08
-9268.4
-9229.88
-9189.97
-9149.05
-9107.45
-9065.53
-9023.62
-8982.09
-8941.34
-8901.77
-8863.85
-8828.03
-8794.82
-8764.72
-8738.24
-8715.91
-8698.23
-8685.7
-8678.75
-8677.8
-8683.17
-8695.12
-8713.77
-8739.11
-8770.93
-8808.79
-8851.86
-8898.89
-8947.86
-8995.66
-9037.31
-9064.38
-9061.68
-8999.07
-8809.62
-8324.46
-7057.57
-7092.16
-8427.68
-8979.88
-9233.76
-9357.2
-9416.17
-9439.97
-9443.03
-9433.08
-9414.57
-9390.19
-9361.62
-9329.99
-9296.06
-9260.38
-9223.38
-9185.42
-9146.84
-9107.94
-9069.06
-9030.53
-8992.73
-8956.03
-8920.86
-8887.65
-8856.86
-8828.95
-8804.42
-8783.73
-8767.37
-8755.77
-8749.36
-8748.5
-8753.51
-8764.61
-8781.9
-8805.37
-8834.8
-8869.73
-8909.38
-8952.49
-8997.09
-9040.11
-9076.58
-9098.15
-9089.67
-9021.05
-8825.44
-8333.99
-7060.76
-7092.73
-8429.44
-8982.91
-9238.18
-9363.15
-9423.83
-9449.5
-9454.59
-9446.84
-9430.69
-9408.8
-9382.85
-9353.96
-9322.87
-9290.12
-9256.13
-9221.25
-9185.77
-9150.01
-9114.26
-9078.84
-9044.08
-9010.35
-8978.02
-8947.5
-8919.21
-8893.58
-8871.05
-8852.06
-8837.04
-8826.41
-8820.54
-8819.78
-8824.41
-8834.62
-8850.5
-8872.03
-8898.98
-8930.91
-8967.04
-9006.14
-9046.27
-9084.4
-9115.62
-9131.63
-9117.35
-9042.75
-8841.01
-8343.37
-7063.89
-7093.06
-8430.48
-8984.78
-9241.07
-9367.28
-9429.44
-9456.84
-9463.88
-9458.29
-9444.48
-9425.11
-9401.83
-9375.73
-9347.55
-9317.82
-9286.92
-9255.18
-9222.91
-9190.36
-9157.83
-9125.6
-9093.98
-9063.29
-9033.88
-9006.12
-8980.4
-8957.09
-8936.61
-8919.36
-8905.72
-8896.07
-8890.76
-8890.09
-8894.32
-8903.61
-8918.05
-8937.58
-8962
-8990.86
-9023.41
-9058.43
-9094.04
-9127.26
-9153.24
-9163.75
-9143.77
-9063.36
-8855.75
-8352.21
-7066.83
-7092.96
-8430.23
-8984.61
-9241.29
-9368.26
-9431.54
-9460.4
-9469.23
-9465.69
-9454.18
-9437.31
-9416.71
-9393.45
-9368.23
-9341.56
-9313.81
-9285.3
-9256.29
-9227.04
-9197.8
-9168.83
-9140.4
-9112.82
-9086.4
-9061.46
-9038.35
-9017.42
-8999.03
-8983.54
-8971.31
-8962.66
-8957.91
-8957.32
-8961.13
-8969.49
-8982.44
-8999.95
-9021.79
-9047.54
-9076.46
-9107.39
-9138.49
-9166.84
-9187.68
-9192.87
-9167.48
-9081.66
-8868.71
-8359.93
-7069.39
-7092.09
-8427.76
-8980.94
-9236.97
-9363.89
-9427.7
-9457.62
-9467.96
-9466.31
-9457
-9442.58
-9424.66
-9404.24
-9382.01
-9358.45
-9333.91
-9308.67
-9282.99
-9257.09
-9231.19
-9205.53
-9180.36
-9155.94
-9132.55
-9110.47
-9090.01
-9071.49
-9055.22
-9041.53
-9030.71
-9023.07
-9018.88
-9018.38
-9021.76
-9029.16
-9040.61
-9056.06
-9075.3
-9097.92
-9123.21
-9150.07
-9176.72
-9200.33
-9216.25
-9216.47
-9186.19
-9095.69
-8878.36
-8365.54
-7071.23
-7089.85
-8421.35
-8971.14
-9224.79
-9350.39
-9413.84
-9444.21
-9455.65
-9455.65
-9448.39
-9436.35
-9421.06
-9403.48
-9384.25
-9363.83
-9342.53
-9320.61
-9298.29
-9275.78
-9253.27
-9230.97
-9209.09
-9187.87
-9167.54
-9148.36
-9130.59
-9114.51
-9100.38
-9088.49
-9079.1
-9072.48
-9068.85
-9068.43
-9071.37
-9077.79
-9087.73
-9101.11
-9117.74
-9137.23
-9158.92
-9181.77
-9204.09
-9223.17
-9234.54
-9230.35
-9196.03
-9102.07
-8882.03
-8367.3
-7071.73
-7085.04
-8407.63
-8950.17
-9198.6
-9320.88
-9382.64
-9412.6
-9424.6
-9425.89
-9420.48
-9410.7
-9397.98
-9383.22
-9367
-9349.73
-9331.69
-9313.11
-9294.19
-9275.1
-9256.01
-9237.1
-9218.55
-9200.56
-9183.32
-9167.06
-9152
-9138.37
-9126.4
-9116.33
-9108.38
-9102.77
-9099.71
-9099.36
-9101.86
-9107.3
-9115.7
-9127.01
-9141.03
-9157.41
-9175.55
-9194.49
-9212.67
-9227.56
-9234.88
-9227.12
-9190.06
-9094.58
-8874.65
-8361.82
-7069.69
-7075.02
-8379.43
-8907.74
-9146.15
-9262.03
-9320.16
-9348.52
-9360.37
-9362.52
-9358.7
-9351.04
-9340.82
-9328.83
-9315.61
-9301.49
-9286.72
-9271.51
-9256.01
-9240.36
-9224.72
-9209.22
-9194.02
-9179.28
-9165.16
-9151.84
-9139.5
-9128.33
-9118.53
-9110.28
-9103.78
-9099.19
-9096.68
-9096.4
-9098.45
-9102.91
-9109.78
-9119.01
-9130.44
-9143.75
-9158.41
-9173.58
-9187.86
-9198.95
-9202.94
-9192.76
-9154.86
-9060.94
-8845.87
-8341.9
-7062.44
-7053.2
-8319.88
-8820.71
-9041.02
-9145.78
-9197.59
-9222.8
-9233.62
-9236.13
-9233.62
-9227.9
-9220.09
-9210.84
-9200.59
-9189.62
-9178.13
-9166.29
-9154.22
-9142.04
-9129.86
-9117.8
-9105.96
-9094.48
-9083.49
-9073.12
-9063.51
-9054.82
-9047.19
-9040.77
-9035.71
-9032.15
-9030.2
-9029.99
-9031.58
-9035.05
-9040.39
-9047.55
-9056.41
-9066.69
-9077.96
-9089.52
-9100.18
-9107.97
-9109.49
-9098.42
-9062.36
-8974.69
-8772.56
-8290.67
-7043.41
-7000.46
-8184.44
-8631.93
-8820.56
-8907.27
-8949.21
-8969.43
-8978.22
-8980.55
-8979.04
-8975.11
-8969.61
-8963.05
-8955.75
-8947.92
-8939.72
-8931.26
-8922.63
-8913.93
-8905.22
-8896.59
-8888.13
-8879.93
-8872.07
-8864.66
-8857.79
-8851.58
-8846.13
-8841.55
-8837.93
-8835.39
-8834
-8833.84
-8834.99
-8837.46
-8841.27
-8846.38
-8852.68
-8859.98
-8867.96
-8876.06
-8883.39
-8888.43
-8888.45
-8878.34
-8847.66
-8773.16
-8597.51
-8163.56
-6993.46
-6850.89
-7840.8
-8184.39
-8319.73
-8379.07
-8406.95
-8420.21
-8426
-8427.65
-8426.87
-8424.58
-8421.32
-8417.4
-8413.03
-8408.33
-8403.41
-8398.34
-8393.16
-8387.93
-8382.71
-8377.53
-8372.45
-8367.52
-8362.81
-8358.36
-8354.24
-8350.51
-8347.24
-8344.49
-8342.32
-8340.79
-8339.96
-8339.87
-8340.55
-8342.04
-8344.32
-8347.38
-8351.15
-8355.52
-8360.26
-8365.06
-8369.33
-8372.1
-8371.61
-8364.42
-8343.29
-8291.28
-8163.74
-7828.27
-6846.69
-6334.07
-6850.88
-7000.44
-7053.14
-7074.89
-7084.8
-7089.45
-7091.47
-7092.07
-7091.83
-7091.08
-7090
-7088.7
-7087.24
-7085.68
-7084.04
-7082.35
-7080.62
-7078.88
-7077.14
-7075.41
-7073.72
-7072.07
-7070.5
-7069.02
-7067.64
-7066.4
-7065.31
-7064.39
-7063.67
-7063.16
-7062.88
-7062.85
-7063.08
-7063.58
-7064.34
-7065.36
-7066.61
-7068.06
-7069.64
-7071.23
-7072.63
-7073.51
-7073.24
-7070.62
-7062.96
-7043.65
-6993.55
-6846.71
-6332.67
-1401.96
-2230.45
-2524.34
-2647.04
-2705.29
-2735.61
-2752.38
-2761.96
-2767.46
-2770.51
-2772.03
-2772.56
-2772.43
-2771.86
-2770.99
-2769.9
-2768.67
-2767.34
-2765.95
-2764.52
-2763.08
-2761.65
-2760.26
-2758.92
-2757.64
-2756.46
-2755.38
-2754.43
-2753.61
-2752.96
-2752.47
-2752.15
-2752.02
-2752.06
-2752.26
-2752.59
-2753
-2753.39
-2753.65
-2753.54
-2752.75
-2750.7
-2746.48
-2738.42
-2723.39
-2695.01
-2638.87
-2518.41
-2226.85
-1400.75
-2230.45
-3940.84
-4653.03
-4978.43
-5140.46
-5226.97
-5275.47
-5303.38
-5319.46
-5328.38
-5332.82
-5334.34
-5333.92
-5332.19
-5329.55
-5326.28
-5322.58
-5318.59
-5314.41
-5310.12
-5305.81
-5301.53
-5297.35
-5293.32
-5289.5
-5285.95
-5282.71
-5279.86
-5277.42
-5275.45
-5273.98
-5273.04
-5272.64
-5272.77
-5273.37
-5274.37
-5275.6
-5276.82
-5277.62
-5277.38
-5275.11
-5269.2
-5256.93
-5233.58
-5190.31
-5109.63
-4953.91
-4635.23
-3930.04
-2226.84
-2524.36
-4653.07
-5613.47
-6079.47
-6321.4
-6454.16
-6529.92
-6574
-6599.54
-6613.74
-6620.74
-6623.05
-6622.22
-6619.26
-6614.81
-6609.34
-6603.16
-6596.49
-6589.52
-6582.37
-6575.19
-6568.06
-6561.09
-6554.38
-6548.01
-6542.1
-6536.71
-6531.95
-6527.89
-6524.61
-6522.17
-6520.61
-6519.95
-6520.17
-6521.19
-6522.88
-6524.99
-6527.09
-6528.56
-6528.39
-6524.98
-6515.81
-6496.62
-6460.13
-6393.09
-6270.02
-6038.62
-5583.82
-4635.08
-2518.33
-2647.1
-4978.56
-6079.6
-6636.13
-6934.75
-7102.7
-7200.21
-7257.59
-7291.04
-7309.63
-7318.7
-7321.5
-7320.08
-7315.77
-7309.46
-7301.74
-7293.05
-7283.7
-7273.93
-7263.93
-7253.87
-7243.89
-7234.14
-7224.75
-7215.84
-7207.56
-7200.03
-7193.37
-7187.69
-7183.1
-7179.69
-7177.51
-7176.6
-7176.93
-7178.4
-7180.83
-7183.87
-7186.97
-7189.29
-7189.47
-7185.45
-7173.87
-7149.32
-7102.56
-7017.24
-6862.86
-6578.98
-6038.1
-4953.39
-2638.66
-2705.4
-5140.77
-6321.8
-6935.07
-7272.15
-7465.49
-7579.4
-7647.11
-7686.75
-7708.74
-7719.28
-7722.21
-7719.98
-7714.2
-7705.93
-7695.93
-7684.71
-7672.66
-7660.08
-7647.23
-7634.29
-7621.47
-7608.94
-7596.88
-7585.44
-7574.8
-7565.13
-7556.57
-7549.27
-7543.38
-7539.01
-7536.22
-7535.08
-7535.53
-7537.49
-7540.7
-7544.75
-7548.99
-7552.37
-7553.27
-7549.21
-7536.24
-7508.02
-7453.96
-7355.71
-7179.8
-6861.65
-6268.49
-5108.44
-2694.57
-2735.82
-5227.56
-6455
-7103.58
-7466.12
-7677.11
-7802.84
-7878.13
-7922.33
-7946.71
-7958.1
-7960.78
-7957.51
-7950.11
-7939.81
-7927.46
-7913.69
-7898.93
-7883.55
-7867.84
-7852.04
-7836.38
-7821.09
-7806.36
-7792.4
-7779.42
-7767.6
-7757.16
-7748.26
-7741.07
-7735.74
-7732.36
-7730.98
-7731.59
-7734.06
-7738.11
-7743.27
-7748.79
-7753.46
-7755.46
-7751.98
-7738.6
-7708.34
-7649.72
-7543.11
-7353.39
-7013.95
-6389.93
-5188.09
-2722.59
-2752.73
-5276.45
-6531.4
-7201.93
-7581.02
-7803.92
-7937.81
-8018.37
-8065.66
-8091.51
-8103.18
-8105.24
-8100.7
-8091.54
-8079.11
-8064.38
-8048.02
-8030.55
-8012.37
-7993.81
-7975.16
-7956.68
-7938.64
-7921.26
-7904.79
-7889.47
-7875.54
-7863.21
-7852.72
-7844.24
-7837.96
-7834
-7832.42
-7833.2
-7836.21
-7841.16
-7847.52
-7854.45
-7860.65
-7864.12
-7861.78
-7848.91
-7818.06
-7757.16
-7645.83
-7448.04
-7096.2
-6454.63
-5229.89
-2737.12
-2762.49
-5304.91
-6576.37
-7260.5
-7650.16
-7880.82
-8020.07
-8104.05
-8153.21
-8179.74
-8191.15
-8192.27
-8186.25
-8175.2
-8160.58
-8143.42
-8124.46
-8104.27
-8083.3
-8061.91
-8040.43
-8019.16
-7998.38
-7978.37
-7959.42
-7941.79
-7925.74
-7911.56
-7899.48
-7889.73
-7882.52
-7877.98
-7876.2
-7877.18
-7880.77
-7886.67
-7894.31
-7902.79
-7910.73
-7915.97
-7915.28
-7903.7
-7873.47
-7812.12
-7698.84
-7497.08
-7138.79
-6488
-5251.31
-2744.53
-2768.23
-5321.7
-6603.06
-7295.51
-7691.72
-7927.22
-8069.78
-8155.74
-8205.79
-8232.33
-8243.07
-8242.96
-8235.27
-8222.23
-8205.36
-8185.74
-8164.18
-8141.29
-8117.54
-8093.35
-8069.06
-8045.02
-8021.55
-7998.95
-7977.53
-7957.61
-7939.49
-7923.46
-7909.82
-7898.82
-7890.68
-7885.58
-7883.63
-7884.82
-7889.01
-7895.9
-7904.89
-7915.04
-7924.88
-7932.17
-7933.56
-7923.9
-7895.24
-7834.84
-7721.62
-7518.77
-7158
-6503.22
-5261.14
-2747.93
-2771.58
-5331.51
-6618.71
-7316.08
-7716.17
-7954.48
-8098.84
-8185.7
-8235.9
-8261.94
-8271.64
-8270.08
-8260.59
-8245.47
-8226.31
-8204.23
-8180.08
-8154.5
-8128.01
-8101.05
-8074
-8047.24
-8021.1
-7995.94
-7972.1
-7949.93
-7929.76
-7911.92
-7896.74
-7884.5
-7875.46
-7869.82
-7867.7
-7869.11
-7873.94
-7881.84
-7892.23
-7904.13
-7916.01
-7925.58
-7929.36
-7922.12
-7895.73
-7837.32
-7725.62
-7523.66
-7163.02
-6507.58
-5264.1
-2748.98
-2773.46
-5337.03
-6627.5
-7327.6
-7729.77
-7969.48
-8114.57
-8201.55
-8251.33
-8276.48
-8284.89
-8281.7
-8270.32
-8253.07
-8231.6
-8207.07
-8180.35
-8152.13
-8122.94
-8093.26
-8063.5
-8034.06
-8005.32
-7977.66
-7951.44
-7927.06
-7904.88
-7885.27
-7868.57
-7855.12
-7845.2
-7839.03
-7836.75
-7838.41
-7843.87
-7852.82
-7864.65
-7878.35
-7892.37
-7904.35
-7910.77
-7906.29
-7882.69
-7826.99
-7717.81
-7518.07
-7159.29
-6505.29
-5262.91
-2748.61
-2774.42
-5339.85
-6631.94
-7333.34
-7736.4
-7976.54
-8121.63
-8208.18
-8257.13
-8281.11
-8288.05
-8283.12
-8269.78
-8250.39
-8226.61
-8199.66
-8170.42
-8139.6
-8107.78
-8075.45
-8043.04
-8011
-7979.72
-7949.61
-7921.08
-7894.55
-7870.41
-7849.07
-7830.9
-7816.27
-7805.49
-7798.8
-7796.39
-7798.29
-7804.39
-7814.39
-7827.66
-7843.19
-7859.41
-7873.9
-7883.11
-7881.62
-7861.16
-7808.66
-7702.65
-7506
-7150.16
-6498.95
-5259.18
-2747.39
-2774.81
-5340.95
-6633.63
-7335.39
-7738.54
-7978.48
-8123.06
-8208.8
-8256.65
-8279.27
-8284.62
-8277.89
-8262.57
-8241.04
-8215
-8185.67
-8153.98
-8120.64
-8086.26
-8051.35
-8016.39
-7981.82
-7948.08
-7915.61
-7884.85
-7856.23
-7830.19
-7807.17
-7787.58
-7771.81
-7760.19
-7753.02
-7750.47
-7752.61
-7759.36
-7770.4
-7785.11
-7802.47
-7820.89
-7837.94
-7850
-7851.64
-7834.51
-7785.49
-7683.07
-7490.04
-7137.81
-6490.18
-5253.94
-2745.64
-2774.82
-5340.97
-6633.55
-7335.08
-7737.82
-7977.15
-8120.89
-8205.57
-8252.16
-8273.31
-8277.01
-8268.47
-8251.18
-8227.56
-8199.31
-8167.68
-8133.61
-8097.85
-8061.01
-8023.63
-7986.2
-7949.21
-7913.11
-7878.37
-7845.45
-7814.83
-7786.97
-7762.34
-7741.38
-7724.51
-7712.09
-7704.44
-7701.77
-7704.16
-7711.54
-7723.59
-7739.72
-7758.88
-7779.47
-7799.06
-7814
-7818.79
-7805.08
-7759.69
-7661.06
-7471.93
-7123.68
-6480.06
-5247.87
-2743.62
-2774.61
-5340.32
-6632.4
-7333.33
-7735.34
-7973.79
-8116.5
-8199.99
-8245.22
-8264.86
-8266.9
-8256.57
-8237.36
-8211.71
-8181.34
-8147.51
-8111.17
-8073.09
-8033.91
-7994.17
-7954.41
-7915.1
-7876.75
-7839.85
-7804.88
-7772.36
-7742.76
-7716.6
-7694.33
-7676.42
-7663.24
-7655.14
-7652.35
-7654.98
-7662.96
-7676
-7693.49
-7714.41
-7737.12
-7759.19
-7776.94
-7784.86
-7774.56
-7732.81
-7638.01
-7452.88
-7108.75
-6469.35
-5241.42
-2741.47
-2774.27
-5339.27
-6630.61
-7330.72
-7731.83
-7969.27
-8110.85
-8193.08
-8236.94
-8255.08
-8255.5
-8243.43
-8222.38
-8194.8
-8162.42
-8126.5
-8088.02
-8047.76
-8006.36
-7964.4
-7922.43
-7880.96
-7840.49
-7801.55
-7764.66
-7730.33
-7699.1
-7671.49
-7648
-7629.1