/*--------------------------------*- C++ -*----------------------------------*\
| =========                 |                                                 |
| \\      /  F ield         | OpenFOAM: The Open Source CFD Toolbox           |
|  \\    /   O peration     | Version:  5.x                                   |
|   \\  /    A nd           | Web:      www.OpenFOAM.org                      |
|    \\/     M anipulation  |                                                 |
\*---------------------------------------------------------------------------*/
FoamFile
{
    version     2.0;
    format      ascii;
    class       volScalarField;
    location    "0.7";
    object      T;
}
// * * * * * * * * * * * * * * * * * * * * * * * * * * * * * * * * * * * * * //

dimensions      [0 0 0 1 0 0 0];

internalField   nonuniform List<scalar> 
25000
(
300.729
301.359
301.728
301.992
302.202
302.381
302.541
302.689
302.829
302.963
303.094
303.223
303.351
303.48
303.608
303.737
303.865
303.994
304.122
304.249
304.375
304.497
304.615
304.727
304.834
304.932
305.02
305.098
305.162
305.213
305.248
305.265
305.263
305.241
305.198
305.132
305.043
304.929
304.79
304.626
304.435
304.218
303.973
303.699
303.394
303.054
302.669
302.22
301.657
300.829
301.358
302.892
303.91
304.671
305.289
305.821
306.299
306.74
307.157
307.559
307.951
308.338
308.723
309.107
309.491
309.877
310.263
310.65
311.034
311.415
311.79
312.156
312.511
312.849
313.167
313.461
313.727
313.959
314.154
314.305
314.409
314.461
314.456
314.391
314.261
314.064
313.796
313.455
313.039
312.546
311.975
311.323
310.59
309.771
308.86
307.846
306.703
305.386
303.788
301.658
301.727
303.907
305.457
306.663
307.663
308.533
309.319
310.048
310.739
311.405
312.057
312.7
313.339
313.978
314.618
315.26
315.903
316.546
317.187
317.821
318.446
319.056
319.646
320.209
320.74
321.23
321.672
322.06
322.383
322.636
322.809
322.896
322.888
322.78
322.564
322.236
321.791
321.224
320.531
319.712
318.762
317.68
316.463
315.105
313.597
311.922
310.049
307.916
305.398
302.227
301.987
304.66
306.652
308.249
309.599
310.788
311.869
312.877
313.836
314.763
315.67
316.567
317.459
318.351
319.245
320.142
321.041
321.94
322.835
323.722
324.596
325.449
326.274
327.063
327.805
328.491
329.11
329.652
330.105
330.459
330.702
330.824
330.814
330.663
330.363
329.905
329.283
328.491
327.525
326.382
325.057
323.549
321.854
319.965
317.874
315.559
312.988
310.093
306.747
302.687
302.192
305.264
307.63
309.573
311.243
312.73
314.093
315.37
316.589
317.77
318.929
320.075
321.217
322.36
323.506
324.656
325.809
326.962
328.111
329.25
330.372
331.468
332.527
333.539
334.493
335.374
336.17
336.866
337.449
337.904
338.217
338.374
338.363
338.17
337.786
337.2
336.404
335.39
334.153
332.69
330.995
329.067
326.902
324.494
321.833
318.9
315.661
312.05
307.945
303.091
302.364
305.773
308.464
310.716
312.679
314.444
316.073
317.608
319.079
320.508
321.913
323.305
324.693
326.084
327.479
328.88
330.285
331.691
333.092
334.481
335.849
337.186
338.478
339.714
340.877
341.953
342.925
343.775
344.487
345.044
345.427
345.62
345.608
345.375
344.908
344.196
343.228
341.995
340.492
338.712
336.653
334.312
331.687
328.771
325.557
322.027
318.148
313.861
309.047
303.461
302.513
306.217
309.197
311.728
313.959
315.985
317.866
319.648
321.361
323.031
324.676
326.308
327.939
329.572
331.213
332.862
334.517
336.173
337.824
339.461
341.074
342.649
344.174
345.631
347.003
348.272
349.419
350.423
351.264
351.921
352.375
352.605
352.592
352.321
351.774
350.937
349.8
348.352
346.586
344.496
342.08
339.334
336.258
332.847
329.096
324.988
320.497
315.564
310.08
303.807
302.646
306.614
309.853
312.638
315.119
317.387
319.507
321.524
323.471
325.374
327.252
329.12
330.987
332.86
334.743
336.636
338.536
340.439
342.337
344.219
346.074
347.886
349.64
351.317
352.896
354.358
355.678
356.835
357.804
358.562
359.085
359.352
359.341
359.032
358.406
357.449
356.146
354.487
352.463
350.07
347.303
344.162
340.646
336.754
332.481
327.816
322.734
317.183
311.06
304.136
302.765
306.973
310.449
313.469
316.18
318.677
321.022
323.264
325.435
327.563
329.667
331.763
333.861
335.968
338.088
340.221
342.363
344.509
346.649
348.773
350.867
352.913
354.894
356.787
358.571
360.222
361.715
363.022
364.118
364.977
365.571
365.875
365.866
365.521
364.819
363.743
362.279
360.413
358.138
355.448
352.34
348.814
344.87
340.509
335.731
330.526
324.875
318.732
311.997
304.449
302.875
307.302
310.996
314.232
317.158
319.869
322.429
324.884
327.27
329.614
331.936
334.254
336.577
338.912
341.263
343.63
346.009
348.393
350.772
353.134
355.462
357.738
359.941
362.048
364.034
365.871
367.533
368.99
370.211
371.169
371.833
372.175
372.169
371.789
371.014
369.824
368.202
366.136
363.616
360.638
357.197
353.296
348.937
344.123
338.855
333.13
326.931
320.217
312.895
304.75
302.976
307.605
311.501
314.938
318.065
320.977
323.739
326.396
328.987
331.539
334.072
336.603
339.144
341.701
344.277
346.872
349.481
352.098
354.71
357.303
359.86
362.361
364.782
367.098
369.281
371.302
373.13
374.733
376.078
377.133
377.866
378.246
378.244
377.832
376.987
375.686
373.912
371.651
368.894
365.636
361.874
357.61
352.849
347.597
341.857
335.63
328.903
321.641
313.755
305.038
303.07
307.885
311.968
315.592
318.908
322.008
324.96
327.81
330.596
333.346
336.081
338.817
341.567
344.338
347.132
349.947
352.781
355.622
358.46
361.279
364.059
366.778
369.411
371.931
374.307
376.507
378.497
380.242
381.708
382.859
383.66
384.078
384.08
383.638
382.725
381.317
379.397
376.949
373.964
370.436
366.363
361.75
356.602
350.928
344.735
338.026
330.793
323.005
314.58
305.313
303.156
308.144
312.401
316.199
319.69
322.968
326.098
329.13
332.101
335.038
337.966
340.899
343.85
346.825
349.828
352.856
355.905
358.964
362.02
365.056
368.051
370.982
373.82
376.537
379.099
381.471
383.619
385.503
387.086
388.33
389.198
389.653
389.66
389.19
388.212
386.703
384.643
382.016
378.811
375.024
370.654
365.706
360.188
354.11
347.483
340.313
332.596
324.307
315.366
305.576
303.236
308.384
312.801
316.761
320.415
323.858
327.156
330.359
333.503
336.619
339.728
342.848
345.99
349.16
352.362
355.594
358.848
362.115
365.38
368.624
371.826
374.959
377.994
380.9
383.641
386.18
388.478
390.496
392.192
393.526
394.458
394.949
394.963
394.466
393.428
391.823
389.629
386.831
383.418
379.385
374.732
369.465
363.594
357.132
350.092
342.484
334.308
325.542
316.112
305.826
303.31
308.605
313.171
317.28
321.085
324.681
328.135
331.497
334.804
338.087
341.367
344.663
347.984
351.34
354.73
358.153
361.603
365.067
368.53
371.972
375.37
378.696
381.918
385.004
387.915
390.612
393.055
395.2
397.004
398.424
399.417
399.944
399.964
399.443
398.348
396.652
394.333
391.374
387.764
383.498
378.578
373.01
366.806
359.982
352.552
344.531
335.922
326.707
316.816
306.061
303.377
308.808
313.509
317.755
321.699
325.437
329.035
332.544
336.002
339.44
342.88
346.339
349.829
353.357
356.924
360.527
364.159
367.808
371.458
375.086
378.668
382.175
385.574
388.828
391.9
394.746
397.325
399.589
401.495
402.997
404.049
404.609
404.636
404.092
402.945
401.165
398.728
395.619
391.825
387.342
382.172
376.323
369.808
362.644
354.85
346.443
337.429
327.794
317.473
306.281
303.438
308.991
313.816
318.187
322.258
326.124
329.854
333.498
337.095
340.675
344.262
347.872
351.517
355.204
358.935
362.705
366.507
370.327
374.149
377.95
381.703
385.378
388.941
392.353
395.573
398.559
401.263
403.64
405.64
407.218
408.325
408.916
408.95
408.387
407.191
405.333
402.789
399.54
395.576
390.892
385.491
379.382
372.579
365.103
356.973
348.209
338.821
328.798
318.079
306.484
303.493
309.156
314.092
318.575
322.76
326.742
330.591
334.357
338.08
341.789
345.509
349.256
353.043
356.875
360.754
364.676
368.633
372.61
376.59
380.548
384.458
388.287
391.999
395.555
398.912
402.025
404.845
407.324
409.412
411.059
412.217
412.838
412.878
412.296
411.057
409.129
406.486
403.111
398.993
394.126
388.514
382.168
375.104
367.341
358.905
349.816
340.088
329.712
318.631
306.669
303.542
309.302
314.336
318.918
323.203
327.289
331.243
335.118
338.952
342.777
346.615
350.485
354.398
358.36
362.372
366.431
370.526
374.644
378.765
382.865
386.915
390.882
394.729
398.415
401.894
405.121
408.045
410.616
412.783
414.493
415.696
416.344
416.39
415.793
414.515
412.523
409.793
406.305
402.048
397.018
391.218
384.66
377.361
369.344
360.634
351.254
341.222
330.53
319.125
306.834
303.583
309.428
314.546
319.215
323.588
327.763
331.809
335.778
339.709
343.634
347.576
351.553
355.576
359.652
363.78
367.958
372.175
376.415
380.66
384.884
389.057
393.146
397.111
400.91
404.497
407.824
410.84
413.492
415.727
417.492
418.736
419.407
419.459
418.849
417.537
415.491
412.684
409.097
404.719
399.546
393.582
386.839
379.335
371.095
362.145
352.511
342.212
331.245
319.557
306.978
303.619
309.534
314.724
319.465
323.911
328.161
332.285
336.333
340.346
344.356
348.386
352.453
356.57
360.741
364.969
369.248
373.567
377.913
382.263
386.592
390.87
395.061
399.126
403.022
406.7
410.113
413.206
415.927
418.221
420.034
421.311
422.003
422.06
421.438
420.098
418.005
415.134
411.464
406.983
401.689
395.586
388.685
381.008
372.578
363.425
353.577
343.052
331.851
319.923
307.1
303.647
309.62
314.867
319.666
324.172
328.483
332.668
336.781
340.861
344.939
349.04
353.181
357.373
361.623
365.931
370.291
374.695
379.124
383.56
387.975
392.338
396.613
400.759
404.733
408.486
411.968
415.125
417.902
420.244
422.094
423.4
424.108
424.17
423.539
422.175
420.045
417.122
413.384
408.82
403.428
397.211
390.183
382.365
373.782
364.464
354.441
343.733
332.342
320.22
307.2
303.669
309.684
314.975
319.818
324.368
328.725
332.958
337.12
341.25
345.38
349.534
353.731
357.98
362.289
366.658
371.081
375.548
380.042
384.542
389.022
393.449
397.788
401.996
406.03
409.84
413.374
416.579
419.399
421.777
423.657
424.984
425.705
425.769
425.132
423.751
421.593
418.629
414.84
410.213
404.746
398.444
391.32
383.394
374.695
365.252
355.096
344.25
332.715
320.445
307.275
303.683
309.727
315.047
319.919
324.5
328.888
333.153
337.347
341.51
345.675
349.866
354.1
358.388
362.736
367.146
371.611
376.12
380.658
385.202
389.725
394.196
398.577
402.827
406.901
410.749
414.319
417.556
420.404
422.807
424.707
426.048
426.777
426.844
426.202
424.81
422.632
419.642
415.818
411.15
405.632
399.272
392.083
384.086
375.309
365.782
355.537
344.597
332.965
320.596
307.326
303.69
309.749
315.083
319.971
324.566
328.969
333.25
337.46
341.641
345.824
350.032
354.285
358.592
362.961
367.391
371.877
376.408
380.967
385.533
390.078
394.571
398.974
403.245
407.338
411.205
414.793
418.047
420.909
423.324
425.234
426.583
427.316
427.384
426.74
425.342
423.155
420.151
416.31
411.62
406.078
399.689
392.467
384.434
375.617
366.048
355.758
344.772
333.091
320.672
307.351
303.69
309.749
315.083
319.971
324.566
328.969
333.25
337.46
341.641
345.824
350.032
354.285
358.592
362.961
367.391
371.877
376.408
380.967
385.533
390.078
394.571
398.974
403.245
407.338
411.205
414.793
418.047
420.909
423.324
425.234
426.583
427.316
427.384
426.74
425.342
423.155
420.151
416.31
411.62
406.078
399.689
392.467
384.434
375.617
366.048
355.758
344.772
333.091
320.672
307.351
303.683
309.727
315.047
319.919
324.5
328.888
333.153
337.347
341.51
345.675
349.866
354.1
358.388
362.736
367.146
371.611
376.12
380.658
385.202
389.725
394.196
398.577
402.827
406.901
410.749
414.319
417.556
420.404
422.807
424.707
426.048
426.778
426.844
426.202
424.81
422.632
419.642
415.818
411.149
405.632
399.272
392.083
384.086
375.309
365.782
355.537
344.597
332.965
320.596
307.326
303.669
309.684
314.975
319.818
324.368
328.725
332.958
337.12
341.25
345.38
349.534
353.731
357.98
362.289
366.658
371.081
375.548
380.042
384.542
389.022
393.449
397.788
401.997
406.03
409.84
413.374
416.579
419.399
421.777
423.657
424.984
425.705
425.769
425.132
423.751
421.593
418.629
414.84
410.213
404.746
398.444
391.319
383.394
374.695
365.252
355.096
344.25
332.715
320.445
307.275
303.647
309.62
314.867
319.666
324.172
328.483
332.668
336.781
340.861
344.939
349.04
353.181
357.373
361.623
365.931
370.291
374.695
379.125
383.56
387.975
392.338
396.613
400.759
404.733
408.486
411.968
415.125
417.902
420.244
422.095
423.4
424.108
424.17
423.539
422.175
420.045
417.122
413.384
408.82
403.428
397.211
390.183
382.365
373.782
364.464
354.441
343.733
332.342
320.22
307.2
303.619
309.534
314.724
319.465
323.911
328.161
332.285
336.333
340.346
344.356
348.386
352.453
356.57
360.742
364.969
369.248
373.568
377.913
382.263
386.592
390.87
395.061
399.126
403.022
406.7
410.113
413.206
415.927
418.221
420.034
421.311
422.003
422.06
421.438
420.098
418.005
415.134
411.464
406.983
401.689
395.585
388.685
381.008
372.578
363.425
353.576
343.052
331.851
319.923
307.1
303.583
309.428
314.546
319.215
323.588
327.763
331.809
335.778
339.709
343.634
347.576
351.553
355.576
359.652
363.781
367.958
372.175
376.416
380.66
384.884
389.058
393.146
397.111
400.91
404.497
407.824
410.84
413.492
415.727
417.493
418.736
419.407
419.459
418.849
417.537
415.491
412.684
409.097
404.719
399.546
393.582
386.839
379.335
371.094
362.145
352.511
342.212
331.245
319.557
306.978
303.542
309.302
314.336
318.918
323.203
327.289
331.243
335.118
338.952
342.777
346.615
350.485
354.398
358.36
362.373
366.431
370.526
374.644
378.765
382.865
386.915
390.882
394.729
398.415
401.894
405.121
408.045
410.617
412.783
414.493
415.696
416.344
416.39
415.793
414.515
412.523
409.793
406.305
402.048
397.018
391.218
384.66
377.361
369.344
360.634
351.254
341.221
330.53
319.125
306.834
303.493
309.156
314.092
318.575
322.76
326.742
330.591
334.357
338.08
341.789
345.509
349.256
353.043
356.875
360.754
364.676
368.633
372.61
376.59
380.548
384.458
388.287
391.999
395.556
398.913
402.025
404.845
407.324
409.412
411.059
412.217
412.838
412.878
412.296
411.057
409.129
406.486
403.111
398.992
394.126
388.514
382.168
375.103
367.341
358.905
349.816
340.088
329.712
318.631
306.669
303.438
308.991
313.816
318.187
322.258
326.124
329.854
333.498
337.095
340.675
344.262
347.872
351.517
355.204
358.935
362.705
366.507
370.327
374.149
377.95
381.703
385.378
388.941
392.353
395.574
398.559
401.263
403.64
405.641
407.218
408.325
408.917
408.95
408.387
407.191
405.333
402.789
399.54
395.576
390.892
385.491
379.382
372.579
365.102
356.972
348.208
338.821
328.798
318.079
306.484
303.377
308.808
313.509
317.755
321.699
325.437
329.035
332.544
336.002
339.44
342.88
346.339
349.829
353.357
356.924
360.527
364.16
367.809
371.458
375.086
378.668
382.175
385.574
388.829
391.9
394.747
397.325
399.59
401.495
402.997
404.049
404.609
404.636
404.092
402.945
401.165
398.728
395.619
391.825
387.342
382.172
376.322
369.807
362.644
354.85
346.443
337.429
327.794
317.473
306.281
303.31
308.605
313.171
317.28
321.085
324.681
328.135
331.497
334.804
338.087
341.367
344.663
347.985
351.34
354.73
358.154
361.603
365.067
368.53
371.972
375.37
378.696
381.919
385.004
387.915
390.613
393.055
395.2
397.004
398.424
399.418
399.944
399.964
399.443
398.348
396.652
394.333
391.374
387.764
383.498
378.578
373.01
366.806
359.982
352.552
344.531
335.922
326.706
316.816
306.061
303.236
308.384
312.801
316.761
320.415
323.858
327.156
330.359
333.503
336.619
339.728
342.848
345.99
349.161
352.363
355.594
358.848
362.115
365.38
368.624
371.826
374.959
377.995
380.9
383.641
386.18
388.479
390.496
392.192
393.526
394.458
394.949
394.963
394.466
393.428
391.823
389.629
386.831
383.418
379.385
374.732
369.465
363.594
357.132
350.092
342.484
334.308
325.542
316.112
305.826
303.156
308.144
312.401
316.199
319.69
322.968
326.098
329.13
332.101
335.039
337.966
340.899
343.85
346.825
349.828
352.856
355.905
358.964
362.02
365.056
368.051
370.982
373.82
376.537
379.099
381.472
383.619
385.503
387.086
388.33
389.198
389.653
389.661
389.19
388.212
386.703
384.643
382.016
378.811
375.024
370.654
365.706
360.188
354.11
347.482
340.312
332.596
324.307
315.366
305.576
303.07
307.885
311.968
315.592
318.908
322.008
324.96
327.81
330.596
333.346
336.081
338.817
341.568
344.338
347.132
349.948
352.781
355.622
358.46
361.279
364.059
366.778
369.412
371.931
374.307
376.507
378.497
380.243
381.708
382.859
383.66
384.078
384.08
383.638
382.725
381.317
379.397
376.949
373.964
370.435
366.363
361.75
356.602
350.928
344.735
338.025
330.793
323.005
314.58
305.313
302.976
307.605
311.501
314.938
318.065
320.977
323.739
326.396
328.987
331.539
334.072
336.603
339.144
341.701
344.277
346.872
349.481
352.098
354.71
357.303
359.86
362.361
364.782
367.098
369.281
371.302
373.13
374.733
376.078
377.134
377.867
378.247
378.244
377.832
376.987
375.686
373.912
371.651
368.894
365.636
361.874
357.61
352.849
347.596
341.857
335.63
328.903
321.641
313.755
305.038
302.875
307.302
310.996
314.232
317.158
319.869
322.429
324.884
327.27
329.614
331.936
334.254
336.577
338.912
341.264
343.63
346.009
348.393
350.772
353.134
355.462
357.738
359.941
362.048
364.034
365.872
367.533
368.99
370.212
371.169
371.833
372.175
372.169
371.789
371.014
369.824
368.202
366.136
363.616
360.637
357.197
353.296
348.937
344.123
338.855
333.13
326.931
320.217
312.895
304.75
302.765
306.973
310.449
313.469
316.18
318.676
321.022
323.264
325.435
327.563
329.667
331.763
333.861
335.968
338.088
340.221
342.363
344.509
346.65
348.774
350.867
352.913
354.894
356.787
358.572
360.223
361.715
363.022
364.119
364.977
365.571
365.875
365.866
365.521
364.819
363.743
362.279
360.413
358.138
355.448
352.34
348.814
344.87
340.509
335.73
330.526
324.875
318.732
311.997
304.449
302.646
306.614
309.853
312.638
315.119
317.387
319.507
321.524
323.471
325.374
327.252
329.12
330.987
332.86
334.743
336.636
338.536
340.439
342.337
344.219
346.074
347.887
349.64
351.317
352.897
354.358
355.678
356.835
357.804
358.562
359.086
359.353
359.341
359.032
358.406
357.449
356.146
354.487
352.463
350.07
347.303
344.162
340.646
336.754
332.481
327.815
322.733
317.183
311.06
304.136
302.513
306.217
309.197
311.728
313.959
315.985
317.866
319.648
321.361
323.031
324.676
326.308
327.939
329.573
331.214
332.862
334.517
336.173
337.824
339.461
341.074
342.65
344.174
345.631
347.003
348.273
349.419
350.423
351.264
351.922
352.375
352.605
352.593
352.321
351.774
350.937
349.8
348.352
346.586
344.496
342.08
339.334
336.258
332.847
329.095
324.988
320.497
315.564
310.08
303.807
302.364
305.773
308.464
310.716
312.679
314.444
316.073
317.608
319.079
320.508
321.913
323.305
324.693
326.084
327.479
328.88
330.285
331.691
333.092
334.481
335.849
337.186
338.479
339.714
340.878
341.953
342.925
343.776
344.488
345.044
345.427
345.62
345.608
345.375
344.909
344.196
343.228
341.995
340.492
338.712
336.653
334.312
331.686
328.771
325.556
322.026
318.148
313.861
309.046
303.461
302.192
305.264
307.63
309.573
311.243
312.73
314.093
315.369
316.589
317.77
318.929
320.075
321.217
322.36
323.506
324.656
325.809
326.962
328.111
329.251
330.372
331.468
332.527
333.54
334.493
335.374
336.17
336.866
337.449
337.904
338.217
338.374
338.363
338.17
337.786
337.2
336.404
335.39
334.153
332.69
330.995
329.067
326.902
324.494
321.833
318.9
315.661
312.05
307.945
303.091
301.987
304.66
306.652
308.249
309.599
310.788
311.869
312.877
313.836
314.763
315.67
316.567
317.459
318.351
319.245
320.142
321.041
321.94
322.835
323.723
324.596
325.449
326.274
327.063
327.805
328.491
329.11
329.652
330.105
330.459
330.702
330.824
330.814
330.663
330.363
329.905
329.283
328.491
327.525
326.382
325.057
323.549
321.854
319.965
317.873
315.559
312.988
310.093
306.747
302.687
301.727
303.907
305.457
306.663
307.663
308.533
309.319
310.048
310.739
311.405
312.057
312.7
313.339
313.978
314.618
315.26
315.903
316.546
317.187
317.821
318.446
319.056
319.646
320.209
320.74
321.23
321.673
322.06
322.383
322.636
322.809
322.896
322.888
322.78
322.564
322.236
321.791
321.224
320.531
319.712
318.762
317.68
316.463
315.105
313.597
311.922
310.049
307.916
305.398
302.227
301.358
302.892
303.91
304.671
305.289
305.821
306.299
306.74
307.157
307.559
307.951
308.338
308.723
309.107
309.491
309.877
310.263
310.65
311.034
311.415
311.79
312.157
312.511
312.849
313.167
313.461
313.727
313.959
314.154
314.305
314.409
314.461
314.456
314.391
314.261
314.064
313.796
313.455
313.039
312.546
311.975
311.323
310.59
309.771
308.86
307.846
306.703
305.386
303.788
301.658
300.729
301.359
301.728
301.992
302.202
302.381
302.541
302.689
302.829
302.963
303.094
303.223
303.351
303.48
303.608
303.737
303.865
303.994
304.122
304.249
304.375
304.497
304.615
304.727
304.834
304.932
305.02
305.098
305.162
305.213
305.248
305.265
305.263
305.241
305.198
305.132
305.043
304.929
304.79
304.626
304.435
304.218
303.973
303.699
303.394
303.054
302.669
302.22
301.657
300.829
300.29
300.711
301.02
301.261
301.462
301.637
301.795
301.941
302.08
302.214
302.345
302.474
302.603
302.731
302.86
302.989
303.118
303.247
303.375
303.503
303.628
303.751
303.869
303.982
304.088
304.187
304.275
304.353
304.418
304.469
304.503
304.521
304.519
304.497
304.454
304.388
304.298
304.184
304.045
303.881
303.69
303.473
303.228
302.956
302.653
302.317
301.941
301.513
301.01
300.39
300.711
301.844
302.721
303.426
304.018
304.538
305.009
305.446
305.861
306.262
306.654
307.042
307.427
307.811
308.197
308.583
308.97
309.357
309.743
310.125
310.501
310.868
311.223
311.562
311.881
312.176
312.443
312.675
312.87
313.022
313.126
313.178
313.174
313.108
312.978
312.781
312.512
312.171
311.754
311.261
310.69
310.039
309.306
308.49
307.585
306.582
305.464
304.201
302.742
301.012
301.018
302.718
304.085
305.211
306.174
307.025
307.8
308.523
309.211
309.876
310.527
311.171
311.811
312.451
313.092
313.735
314.38
315.024
315.666
316.303
316.929
317.54
318.132
318.697
319.228
319.72
320.164
320.552
320.877
321.13
321.304
321.39
321.383
321.275
321.059
320.73
320.284
319.716
319.023
318.202
317.252
316.171
314.955
313.601
312.102
310.444
308.607
306.55
304.213
301.519
301.257
303.415
305.2
306.704
308.009
309.174
310.242
311.242
312.197
313.122
314.029
314.926
315.819
316.713
317.608
318.507
319.408
320.309
321.207
322.096
322.972
323.828
324.655
325.445
326.189
326.877
327.498
328.041
328.496
328.85
329.094
329.216
329.206
329.055
328.754
328.296
327.673
326.88
325.913
324.768
323.443
321.936
320.242
318.359
316.278
313.985
311.456
308.65
305.507
301.958
301.453
303.993
306.141
307.982
309.601
311.061
312.408
313.676
314.891
316.07
317.228
318.375
319.519
320.663
321.812
322.964
324.12
325.276
326.428
327.57
328.694
329.793
330.855
331.87
332.825
333.709
334.507
335.205
335.79
336.246
336.559
336.717
336.706
336.513
336.129
335.541
334.744
333.729
332.49
331.025
329.33
327.402
325.238
322.836
320.187
317.278
314.086
310.573
306.681
302.354
301.62
304.49
306.956
309.101
311.009
312.745
314.357
315.883
317.348
318.776
320.18
321.573
322.963
324.355
325.753
327.157
328.566
329.975
331.38
332.772
334.144
335.484
336.78
338.018
339.185
340.264
341.238
342.091
342.805
343.362
343.746
343.94
343.928
343.695
343.228
342.514
341.544
340.31
338.804
337.023
334.963
332.622
329.997
327.088
323.886
320.381
316.553
312.366
307.772
302.72
301.766
304.927
307.678
310.099
312.274
314.268
316.132
317.903
319.612
321.28
322.924
324.558
326.19
327.827
329.471
331.124
332.782
334.442
336.097
337.738
339.355
340.935
342.463
343.924
345.3
346.572
347.722
348.729
349.572
350.231
350.686
350.916
350.904
350.632
350.084
349.247
348.107
346.657
344.888
342.796
340.378
337.632
334.557
331.152
327.413
323.332
318.891
314.062
308.799
303.064
301.898
305.32
308.328
311.003
313.425
315.661
317.763
319.769
321.711
323.612
325.491
327.359
329.229
331.106
332.992
334.889
336.794
338.701
340.604
342.491
344.35
346.168
347.926
349.607
351.191
352.656
353.979
355.139
356.111
356.871
357.396
357.664
357.653
357.343
356.717
355.757
354.452
352.79
350.764
348.367
345.599
342.456
338.941
335.054
330.794
326.155
321.124
315.678
309.778
303.392
302.017
305.677
308.921
311.829
314.481
316.945
319.272
321.503
323.669
325.795
327.9
329.998
332.099
334.21
336.334
338.471
340.619
342.77
344.916
347.045
349.144
351.195
353.181
355.079
356.868
358.524
360.02
361.331
362.43
363.29
363.886
364.191
364.183
363.837
363.134
362.056
360.589
358.721
356.442
353.749
350.637
347.109
343.166
338.81
334.043
328.865
323.265
317.225
310.714
303.705
302.126
306.005
309.466
312.59
315.457
318.135
320.676
323.12
325.501
327.844
330.168
332.487
334.814
337.153
339.51
341.882
344.266
346.656
349.041
351.408
353.742
356.024
358.233
360.345
362.336
364.179
365.845
367.305
368.53
369.49
370.156
370.499
370.493
370.113
369.337
368.144
366.52
364.45
361.926
358.943
355.499
351.596
347.236
342.426
337.17
331.47
325.322
318.711
311.612
304.006
302.227
306.307
309.97
313.295
316.363
319.242
321.984
324.632
327.219
329.769
332.303
334.837
337.382
339.943
342.525
345.126
347.741
350.364
352.982
355.582
358.146
360.653
363.08
365.402
367.591
369.618
371.45
373.057
374.406
375.464
376.199
376.581
376.579
376.166
375.319
374.016
372.238
369.974
367.213
363.949
360.183
355.916
351.154
345.905
340.176
333.973
327.297
320.137
312.474
304.294
302.32
306.587
310.437
313.949
317.205
320.273
323.206
326.047
328.828
331.577
334.313
337.053
339.808
342.584
345.383
348.205
351.045
353.894
356.739
359.564
362.352
365.078
367.718
370.244
372.626
374.831
376.827
378.577
380.047
381.201
382.004
382.423
382.426
381.983
381.068
379.658
377.734
375.282
372.291
368.758
364.68
360.063
354.914
349.242
343.058
336.373
329.189
321.503
313.299
304.57
302.407
306.847
310.87
314.556
317.988
321.233
324.345
327.368
330.334
333.271
336.201
339.138
342.093
345.074
348.084
351.119
354.174
357.241
360.305
363.348
366.351
369.289
372.135
374.859
377.427
379.806
381.959
383.848
385.436
386.683
387.553
388.009
388.018
387.546
386.567
385.055
382.991
380.359
377.148
373.355
368.98
364.027
358.506
352.43
345.812
338.664
330.996
322.807
314.087
304.834
302.487
307.087
311.271
315.119
318.714
322.124
325.404
328.598
331.739
334.854
337.966
341.09
344.237
347.414
350.623
353.861
357.123
360.398
363.671
366.924
370.134
373.275
376.318
379.231
381.979
384.525
386.829
388.852
390.553
391.891
392.825
393.318
393.332
392.834
391.794
390.186
387.988
385.185
381.765
377.726
373.067
367.794
361.92
355.459
348.426
340.84
332.712
324.045
314.835
305.084
302.561
307.308
311.641
315.638
319.384
322.948
326.385
329.738
333.042
336.325
339.608
342.908
346.235
349.597
352.995
356.426
359.884
363.356
366.828
370.279
373.686
377.02
380.251
383.344
386.263
388.967
391.416
393.567
395.375
396.799
397.796
398.324
398.344
397.822
396.725
395.026
392.702
389.738
386.121
381.848
376.921
371.347
365.139
358.314
350.892
342.892
334.329
325.212
315.54
305.319
302.628
307.511
311.979
316.114
320
323.705
327.286
330.787
334.242
337.68
341.123
344.587
348.084
351.618
355.193
358.805
362.446
366.104
369.762
373.4
376.991
380.507
383.915
387.178
390.257
393.111
395.696
397.967
399.878
401.383
402.438
403
403.027
402.483
401.333
399.549
397.108
393.993
390.192
385.701
380.523
374.667
368.147
360.983
353.195
344.808
335.839
326.302
316.198
305.54
302.689
307.695
312.287
316.547
320.559
324.394
328.107
331.743
335.337
338.918
342.508
346.124
349.776
353.47
357.209
360.988
364.799
368.629
372.46
376.27
380.033
383.718
387.29
390.711
393.939
396.933
399.644
402.027
404.033
405.614
406.725
407.318
407.352
406.788
405.589
403.728
401.178
397.924
393.952
389.26
383.851
377.734
370.926
363.447
355.323
346.578
337.234
327.308
316.806
305.743
302.744
307.86
312.564
316.936
321.062
325.013
328.846
332.604
336.324
340.035
343.758
347.511
351.304
355.145
359.032
362.964
366.93
370.917
374.906
378.875
382.795
386.634
390.356
393.921
397.287
400.407
403.235
405.72
407.814
409.465
410.626
411.249
411.289
410.707
409.465
407.533
404.885
401.503
397.377
392.502
386.881
380.527
373.456
365.692
357.26
348.189
338.505
328.225
317.36
305.928
302.793
308.006
312.808
317.28
321.507
325.561
329.499
333.366
337.198
341.024
344.867
348.743
352.663
356.633
360.655
364.723
368.828
372.956
377.087
381.197
385.258
389.235
393.092
396.787
400.276
403.511
406.443
409.021
411.193
412.907
414.114
414.764
414.81
414.212
412.931
410.936
408.2
404.706
400.44
395.401
389.592
383.025
375.72
367.699
358.993
349.631
339.641
329.045
317.855
306.094
302.835
308.133
313.019
317.577
321.892
326.036
330.066
334.027
337.957
341.884
345.83
349.813
353.844
357.928
362.066
366.253
370.48
374.731
378.987
383.222
387.406
391.504
395.48
399.288
402.885
406.221
409.244
411.903
414.145
415.915
417.161
417.835
417.887
417.276
415.961
413.911
411.098
407.505
403.118
397.936
391.962
385.209
377.698
369.454
360.508
350.891
340.634
329.761
318.288
306.238
302.87
308.239
313.197
317.827
322.216
326.436
330.543
334.584
338.596
342.608
346.642
350.716
354.84
359.02
363.258
367.546
371.876
376.232
380.593
384.934
389.222
393.424
397.5
401.406
405.094
408.515
411.617
414.345
416.645
418.462
419.743
420.437
420.495
419.872
418.529
416.432
413.554
409.877
405.388
400.084
393.97
387.06
379.375
370.942
361.792
351.959
341.476
330.368
318.655
306.361
302.899
308.325
313.34
318.029
322.477
326.758
330.928
335.033
339.112
343.192
347.298
351.445
355.645
359.904
364.221
368.592
373.006
377.447
381.894
386.32
390.694
394.98
399.137
403.122
406.885
410.375
413.54
416.325
418.672
420.528
421.838
422.548
422.61
421.978
420.612
418.477
415.547
411.802
407.229
401.827
395.6
388.562
380.736
372.148
362.833
352.826
342.159
330.861
318.952
306.461
302.92
308.389
313.448
318.181
322.675
327.001
331.218
335.373
339.501
343.634
347.793
351.996
356.254
360.572
364.951
369.384
373.862
378.367
382.879
387.37
391.809
396.158
400.378
404.422
408.241
411.785
414.998
417.825
420.21
422.095
423.426
424.148
424.213
423.575
422.191
420.028
417.058
413.261
408.626
403.149
396.836
389.701
381.768
373.064
363.623
353.483
342.677
331.235
319.178
306.536
302.935
308.433
313.521
318.283
322.807
327.164
331.413
335.6
339.763
343.93
348.126
352.366
356.662
361.02
365.44
369.915
374.436
378.984
383.54
388.075
392.557
396.95
401.211
405.295
409.153
412.732
415.978
418.833
421.242
423.147
424.492
425.224
425.291
424.648
423.252
421.07
418.074
414.242
409.564
404.037
397.666
390.467
382.461
373.679
364.154
353.924
343.025
331.486