/*--------------------------------*- C++ -*----------------------------------*\
| =========                 |                                                 |
| \\      /  F ield         | OpenFOAM: The Open Source CFD Toolbox           |
|  \\    /   O peration     | Version:  5.x                                   |
|   \\  /    A nd           | Web:      www.OpenFOAM.org                      |
|    \\/     M anipulation  |                                                 |
\*---------------------------------------------------------------------------*/
FoamFile
{
    version     2.0;
    format      ascii;
    class       volScalarField;
    location    "0.8";
    object      gradTx;
}
// * * * * * * * * * * * * * * * * * * * * * * * * * * * * * * * * * * * * * //

dimensions      [0 -1 0 1 0 0 0];

internalField   nonuniform List<scalar> 
25000
(
5261.72
2541.25
1623.4
1222.42
1009.17
880.52
796.862
740.061
700.576
672.804
653.149
639.113
628.842
620.874
613.995
607.159
599.437
589.988
578.042
562.895
543.901
520.48
492.114
458.359
418.846
373.288
321.487
263.337
198.829
128.053
51.1952
-31.4617
-119.549
-212.622
-310.178
-411.682
-516.599
-624.451
-734.88
-847.765
-963.382
-1082.68
-1207.79
-1342.89
-1496.25
-1684.86
-1947.32
-2385.96
-3329.27
-6062.57
10756.1
6505.28
4567.73
3563.55
2982.65
2618.17
2376.62
2211
2095.24
2013.56
1955.64
1914.25
1883.93
1860.39
1840.02
1819.72
1796.72
1768.51
1732.79
1687.45
1630.57
1560.41
1475.42
1374.26
1255.83
1119.28
964.011
789.707
596.344
384.193
153.817
-93.9361
-357.955
-636.9
-929.257
-1233.41
-1547.73
-1870.76
-2201.39
-2539.17
-2884.82
-3240.94
-3613.41
-4013.82
-4464.37
-5008.63
-5737.09
-6854.17
-8868.04
-13157.4
14296.7
9536.06
7092.22
5704.16
4850.87
4294.95
3918.02
3655.95
3471.19
3340.15
3246.96
3180.24
3131.31
3093.23
3060.16
3027
2989.21
2942.64
2883.5
2808.29
2713.83
2597.22
2455.9
2287.66
2090.67
1863.49
1605.15
1315.14
993.406
640.415
257.111
-155.082
-594.302
-1058.3
-1544.52
-2050.24
-2572.7
-3109.38
-3658.27
-4218.43
-4790.65
-5378.59
-5990.72
-6643.68
-7368.57
-8223.8
-9322.76
-10898.8
-13469.7
-18294.4
16912.7
11951.1
9251.5
7630.64
6589.45
5889.27
5404.1
5061.81
4818.2
4644.39
4520.36
4431.39
4366.07
4315.09
4270.54
4225.48
4173.67
4109.4
4027.4
3922.85
3791.3
3628.74
3431.6
3196.81
2921.81
2604.63
2243.91
1838.92
1389.64
896.706
361.467
-214.07
-827.272
-1474.96
-2153.51
-2859.02
-3587.55
-4335.39
-5099.49
-5878.1
-6671.64
-7484.03
-8324.97
-9213.57
-10185.1
-11303.6
-12688.1
-14571.7
-17448.9
-22500.1
19014
13960.6
11125.1
9363.56
8196.84
7392.78
6825.31
6419.7
6128.45
5919.5
5769.95
5662.53
5583.58
5521.76
5467.33
5411.63
5346.82
5265.7
5161.62
5028.42
4860.46
4652.63
4400.38
4099.79
3747.59
3341.29
2879.13
2360.23
1784.55
1152.95
467.179
-270.154
-1055.62
-1885.09
-2753.82
-3656.71
-4588.5
-5544.19
-6519.48
-7511.53
-8519.88
-9547.97
-10605.4
-11711.8
-12903.1
-14243.8
-15851
-17949.4
-21012.8
-26181
20790.7
15690.5
12778.9
10931.4
9682.02
8805.37
8177.77
7724.38
7396.46
7160.18
6990.74
6869.01
6779.52
6709.23
6646.74
6581.86
6505.27
6408.34
6283.09
6122.12
5918.6
5666.37
5359.91
4994.48
4566.13
4071.84
3509.51
2878.07
2177.5
1408.9
574.426
-322.692
-1278.22
-2287.01
-3343.21
-4440.41
-5571.98
-6731.48
-7913.19
-9112.87
-10328.8
-11563.2
-12824.8
-14132.1
-15519.9
-17050.4
-18836.5
-21094.6
-24283.8
-29524
22343.1
17217
14261
12360.4
11057.1
10131
9461.04
8973.24
8618.58
8362.37
8178.58
8046.72
7949.89
7873.6
7805.02
7732.56
7645.51
7533.94
7388.6
7200.86
6962.79
6667.18
6307.61
5878.52
5375.32
4794.45
4133.5
3391.24
2567.69
1664.15
683.247
-371.165
-1494.02
-2679.15
-3919.51
-5207.35
-6534.6
-7893.26
-9276.01
-10677
-12092.8
-13524.2
-14978.2
-16471.4
-18036.3
-19732.3
-21667.5
-24051.5
-27334.3
-32625.2
23728.9
18587.8
15605.4
13671.9
12333.9
11375.1
10676.5
10165.3
9792.44
9522.93
9329.93
9191.94
9090.88
9011.06
8938.39
8859.98
8763.89
8638.94
8474.65
8261.28
7989.81
7652.03
7240.64
6749.29
6172.77
5507.04
4749.35
3898.34
2954.07
1918.12
793.523
-415.192
-1702.11
-3060.03
-4480.67
-5954.91
-7473.14
-9025.75
-10603.7
-12199.3
-13807.3
-15426.5
-17061.8
-18727.8
-20454.3
-22297.3
-24361
-26849.8
-30207.6
-35538
24983.8
19834
16835.8
14882
13522.5
12543
11826.3
11300.3
10916.4
10639.3
10441.7
10301.2
10198.8
10117.8
10043
9960.3
9856.59
9719.54
9537.55
9299.77
8996.17
8617.58
8155.83
7603.85
6955.82
6207.22
5355.01
4397.71
3335.44
2170.02
904.973
-454.528
-1901.7
-3428.27
-5024.73
-6680.53
-8384.51
-10125.3
-11892.1
-13675.3
-15467.7
-17265.9
-19072.7
-20900.1
-22775.3
-24751.3
-26928.8
-29508.2
-32929.6
-38292.8
26130.9
20976
17968.6
16003.1
14630.9
13639.3
12912.3
12378.4
11989.2
11709.4
11511
11371.2
11270.2
11190.2
11115
11029.5
10919.6
10771.7
10573.3
10312.4
9978.07
9560.16
9049.72
8438.98
7721.5
6892.35
5948.2
4887.46
3710.33
2418.9
1017.15
-489.066
-2092.09
-3782.6
-5549.8
-7381.74
-9265.64
-11188.4
-13137.4
-15101
-17069.9
-19038.6
-21007.5
-22986.2
-24999.5
-27097.4
-29377.8
-32038
-35515.2
-40907
27185.4
22027.7
19015.4
17043.7
15665
14667.6
13936.1
13399.5
13009.7
12731
12535.2
12398.8
12301.3
12224.2
12150.2
12063.4
11948.6
11791.2
11577.7
11295
10931.4
10475.9
9918.57
9251.13
8466.56
7559.5
6526.37
5365.46
4077.08
2663.6
1129.45
-518.827
-2272.71
-4121.8
-6054.05
-8056.08
-10113.5
-12211.5
-14335.5
-16472
-18609.5
-20740.3
-22862.5
-24983.6
-27125.7
-29336.5
-31711.1
-34444.7
-37972.2
-43389.6
28157.5
22998.6
19984.2
18010.1
16629.2
15630.4
14898.7
14363.5
13976.5
13702
13511.3
13380.6
13288.6
13215.9
13144.6
13057.8
12939.3
12773.6
12546.2
12243.2
11851.9
11360.4
10758.3
10036.5
9187.49
8205.5
7086.72
5829.36
4433.84
2902.79
1241.12
-543.949
-2443.04
-4444.71
-6535.66
-8701.08
-10925
-13190.9
-15482.4
-17783.8
-20081.8
-22366.4
-24633.7
-26888.7
-29151.3
-31467
-33928.8
-36729.9
-40303.4
-45744.2
29054
23895
20880.5
18906.4
17526.3
16529.3
15800.6
15269.6
14888.1
14620.1
14436.6
14313.3
14228.2
14161.3
14093.8
14008.1
13886.9
13714.1
13474.1
13152.2
12734.8
12209.4
11564.7
10791.1
9880.53
8826.94
7626.25
6276.62
4778.56
3134.99
1351.3
-564.673
-2602.67
-4750.23
-6992.83
-9314.28
-11697.1
-14123
-16573.8
-19031.9
-21482
-23912.1
-26316
-28696.8
-31072.2
-33485.7
-36028.5
-38892
-42507.9
-47970.1
29879.4
24720.9
21707.5
19735.4
18358.1
17365
16641.4
16116.8
15742.6
15482.8
15308.1
15193.4
15116.3
15056.1
14993.5
14909.7
14786.9
14608
14356.6
14017.2
13575.5
13018.1
12333.2
11510.6
10541.7
9420.23
8141.79
6704.54
5109.08
3358.61
1458.98
-581.324
-2751.24
-5037.28
-7423.78
-9893.18
-12426.5
-15003.9
-17605.3
-20211.4
-22804.8
-25371.8
-27904
-30402.5
-32883.3
-35387.9
-38005.9
-40927.2
-44582.4
-50064.4
30636.4
25478.9
22467.4
20498.4
19125.3
18137.6
17420.6
16903.6
16538.1
16287.7
16122.5
16017.3
15948.9
15896.2
15839
15757.9
15634.2
15450.2
15188.6
14833.3
14369
13781.8
13059.3
12190.7
11167.1
9981.66
8630.05
7110.29
5423.1
3571.94
1563.11
-594.294
-2888.43
-5304.84
-7826.74
-10435.3
-13110.1
-15829.7
-18572.4
-21317.2
-24044.9
-26739.7
-29391.6
-31999.9
-34578.6
-37167.8
-39855.4
-42830.1
-46521.5
-52021.8
31326.5
26170.3
23161.3
21195.9
19827.8
18846.4
18136.8
17628.4
17272.3
17031.7
16876.8
16781.4
16722.2
16677.3
16625.9
16548
16424.2
16235.9
15965.2
15595.4
15110.3
14495.7
13738.3
12826.9
11752.4
10507.5
9087.67
7491
5718.28
3773.23
1662.57
-604.025
-3013.96
-5551.89
-8199.95
-10938.1
-13744.6
-16596.5
-19470.6
-22344.2
-25196.4
-28009.8
-30772.6
-33482.2
-36151.4
-38818.5
-41570.1
-44594
-48318.7
-53835.9
31950.3
26795.4
23789.1
21827.9
20465.2
19490.4
18788.7
18289.1
17942.6
17712.2
17567.5
17482.1
17432.1
17395.2
17349.8
17275.3
17151.8
16960
16681.4
16298.5
15794.6
15154.8
14365.5
13414.9
12293.5
10993.9
9511.31
7843.8
5992.27
3960.72
1756.22
-610.985
-3127.61
-5777.47
-8541.71
-11399.2
-14326.8
-17300.4
-20295.3
-23287.2
-26253.7
-29175.8
-32040.1
-34842.6
-37594.5
-40332.7
-43142.9
-46211.6
-49966.6
-55499.1
32507.7
27354.2
24350.7
22393.7
21036.5
20068.4
19374.5
18883.7
18546.7
18326.2
18191.5
18115.8
18074.8
18045.6
18006.1
17935.3
17812.5
17617.9
17332.4
16937.8
16417.1
15754.6
14936.4
13950.4
12786.5
11437.2
9897.66
8165.84
6242.76
4132.64
1842.92
-615.655
-3229.17
-5980.65
-8850.35
-11816.1
-14853.7
-17937.6
-21042
-24141.1
-27211.1
-30231.5
-33187.6
-36074
-38900.5
-41703
-44566
-47675
-51457.4
-57003.6
32998.2
27846
24845.3
22892.3
21540.4
20578.8
19892.5
19410
19082
18870.9
18745.6
18679.1
18646.6
18624.6
18590.9
18523.6
18401.7
18204.9
17913.4
17508.7
16973.1
16290.6
15446.8
14429.1
13227.4
11833.9
10243.6
8454.42
6467.52
4287.31
1921.57
-618.511
-3318.45
-6160.57
-9124.31
-12186.6
-15322.1
-18504.4
-21706.3
-24900.8
-28062.9
-31170.8
-34208.6
-37169.5
-40062.3
-42921.8
-45831.6
-48976.5
-52783
-58341.5
33421
28270.1
25272
23322.7
21975.7
21020.1
20340.6
19865.8
19546
19343.5
19226.8
19168.7
19143.8
19128.6
19100.1
19036.2
18915.4
18716.8
18420.3
18006.8
17458.4
16758.5
15892.5
14847.4
13612.8
12180.7
10546.2
8707
6664.47
4423.16
1991.14
-620.005
-3395.28
-6316.42
-9362.13
-12508.5
-15729.4
-18997.4
-22284.2
-25561.8
-28804
-31988.1
-35096.8
-38122.5
-41072.9
-43982
-46932.4
-50108.3
-53935.9
-59505
33775.2
28625.5
25629.6
23683.6
22341
21390.7
20717.2
20249.2
19936.6
19741.6
19632.4
19581.6
19563.5
19554.1
19530.2
19469.4
19349.6
19149.7
18849.1
18428.4
17869.2
17154.7
16269.9
15201.6
13939.2
12474.6
10802.7
8921.28
6831.72
4538.74
2050.68
-620.554
-3459.54
-6447.48
-9562.49
-12780
-16073.1
-19413.4
-22771.9
-26119.7
-29429.6
-32677.9
-35846.5
-38926.9
-41925.9
-44876.7
-47861.4
-51063.6
-54908.9
-60486.9
34059.9
28911.2
25917.1
23974
22635
21689
21020.7
20558.2
20251.7
20062.9
19960
19915.2
19902.7
19898.2
19878.3
19820
19701.1
19500.2
19196.4
18769.9
18202.1
17475.8
16575.8
15488.8
14204
12713.1
11010.9
9095.26
6967.61
4632.81
2099.37
-620.525
-3511.09
-6553.12
-9724.24
-12999.3
-16350.8
-19749.7
-23166.2
-26570.8
-29935.5
-33235.7
-36452.8
-39577.4
-42615.6
-45600.2
-48612.5
-51835.9
-55695.5
-61280.7
34274.3
29126.3
26133.7
24192.7
22856.6
21914
21249.6
20791.5
20489.6
20305.6
20207.6
20167.4
20159.3
20158.6
20141.6
20085.3
19967.3
19765.7
19459.5
19028.6
18454.3
17719.1
16807.7
15706.6
14404.7
12893.9
11168.8
9227.26
7070.78
4704.31
2136.51
-620.225
-3549.85
-6632.83
-9846.42
-13165
-16560.7
-20004
-23464.4
-26912
-30318.1
-33657.6
-36911.3
-40069.3
-43137.3
-46147.4
-49180.6
-52420
-56290.4
-61881.1
34417.7
29270.2
26278.6
24339.1
23004.8
22064.6
21402.8
20947.7
20649
20468.2
20373.5
20336.5
20331.3
20333.2
20318.3
20263.4
20145.9
19943.9
19636.1
19202.3
18623.6
17882.5
16963.4
15852.8
14539.6
13015.4
11274.9
9315.99
7140.16
4752.43
2161.57
-619.892
-3575.73
-6686.2
-9928.29
-13276.1
-16701.5
-20174.5
-23664.5
-27140.8
-30574.7
-33940.6
-37218.9
-40399.3
-43487.2
-46514.4
-49561.7
-52811.8
-56689.4
-62283.8
34489.5
29342.2
26351.2
24412.4
23079.1
22140
21479.6
21026
20728.9
20549.8
20456.7
20421.4
20417.7
20420.9
20407
20352.8
20235.6
20033.4
19724.7
19289.5
18708.7
17964.6
17041.7
15926.3
14607.3
13076.4
11328.2
9360.57
7175.03
4776.63
2174.19
-619.69
-3588.69
-6712.96
-9969.37
-13331.9
-16772.2
-20260.1
-23764.8
-27255.7
-30703.5
-34082.7
-37373.2
-40564.9
-43662.8
-46698.6
-49752.9
-53008.3
-56889.7
-62485.8
34489.5
29342.2
26351.2
24412.4
23079.1
22140
21479.7
21026
20728.9
20549.8
20456.7
20421.4
20417.7
20420.9
20407
20352.8
20235.6
20033.4
19724.8
19289.5
18708.7
17964.6
17041.7
15926.3
14607.3
13076.4
11328.2
9360.57
7175.03
4776.62
2174.18
-619.7
-3588.7
-6712.97
-9969.38
-13331.9
-16772.2
-20260.1
-23764.8
-27255.7
-30703.5
-34082.7
-37373.2
-40564.9
-43662.8
-46698.6
-49752.9
-53008.3
-56889.7
-62485.8
34417.7
29270.2
26278.6
24339.1
23004.8
22064.6
21402.8
20947.7
20649
20468.2
20373.5
20336.6
20331.4
20333.2
20318.3
20263.4
20145.9
19943.9
19636.1
19202.3
18623.6
17882.5
16963.4
15852.8
14539.6
13015.4
11274.8
9315.97
7140.14
4752.41
2161.54
-619.922
-3575.76
-6686.23
-9928.33
-13276.2
-16701.6
-20174.6
-23664.5
-27140.8
-30574.7
-33940.6
-37218.9
-40399.3
-43487.2
-46514.4
-49561.6
-52811.7
-56689.4
-62283.7
34274.3
29126.3
26133.8
24192.8
22856.6
21914
21249.6
20791.5
20489.6
20305.6
20207.6
20167.5
20159.3
20158.6
20141.6
20085.4
19967.3
19765.7
19459.5
19028.6
18454.3
17719.1
16807.7
15706.6
14404.7
12893.9
11168.7
9227.23
7070.75
4704.27
2136.46
-620.273
-3549.9
-6632.89
-9846.47
-13165.1
-16560.8
-20004
-23464.5
-26912
-30318.1
-33657.7
-36911.3
-40069.3
-43137.3
-46147.3
-49180.6
-52419.9
-56290.4
-61881
34060
28911.2
25917.2
23974
22635
21689.1
21020.7
20558.3
20251.7
20062.9
19960.1
19915.3
19902.8
19898.3
19878.3
19820
19701.2
19500.3
19196.4
18769.9
18202.1
17475.8
16575.8
15488.8
14204
12713.1
11010.8
9095.22
6967.57
4632.76
2099.31
-620.592
-3511.16
-6553.2
-9724.31
-12999.3
-16350.8
-19749.8
-23166.3
-26570.8
-29935.5
-33235.7
-36452.8
-39577.3
-42615.6
-45600.2
-48612.5
-51835.8
-55695.4
-61280.6
33775.2
28625.5
25629.6
23683.6
22341
21390.7
20717.3
20249.2
19936.7
19741.6
19632.5
19581.6
19563.5
19554.1
19530.3
19469.4
19349.6
19149.7
18849.1
18428.4
17869.2
17154.7
16269.9
15201.6
13939.2
12474.6
10802.7
8921.24
6831.66
4538.68
2050.61
-620.638
-3459.63
-6447.58
-9562.59
-12780.1
-16073.1
-19413.5
-22772
-26119.8
-29429.7
-32677.9
-35846.5
-38926.9
-41925.9
-44876.7
-47861.3
-51063.5
-54908.8
-60486.8
33421
28270.2
25272
23322.7
21975.8
21020.1
20340.7
19865.8
19546.1
19343.5
19226.9
19168.7
19143.9
19128.6
19100.1
19036.2
18915.4
18716.8
18420.3
18006.9
17458.4
16758.6
15892.5
14847.4
13612.7
12180.7
10546.1
8706.95
6664.4
4423.08
1991.05
-620.105
-3395.39
-6316.53
-9362.25
-12508.6
-15729.5
-18997.5
-22284.3
-25561.9
-28804.1
-31988.1
-35096.8
-38122.5
-41072.9
-43981.9
-46932.3
-50108.2
-53935.8
-59504.9
32998.2
27846.1
24845.4
22892.3
21540.5
20578.9
19892.5
19410
19082
18870.9
18745.7
18679.2
18646.6
18624.7
18590.9
18523.7
18401.8
18205
17913.5
17508.7
16973.1
16290.6
15446.8
14429.1
13227.4
11833.9
10243.5
8454.36
6467.45
4287.22
1921.47
-618.624
-3318.57
-6160.7
-9124.45
-12186.7
-15322.3
-18504.6
-21706.4
-24900.9
-28063
-31170.9
-34208.6
-37169.5
-40062.3
-42921.8
-45831.5
-48976.3
-52782.9
-58341.3
32507.7
27354.2
24350.8
22393.7
21036.5
20068.5
19374.6
18883.8
18546.8
18326.3
18191.6
18115.9
18074.9
18045.6
18006.2
17935.4
17812.6
17618
17332.4
16937.8
16417.1
15754.7
14936.4
13950.4
12786.5
11437.2
9897.61
8165.77
6242.68
4132.54
1842.81
-615.78
-3229.3
-5980.8
-8850.5
-11816.2
-14853.8
-17937.8
-21042.1
-24141.2
-27211.2
-30231.6
-33187.6
-36074
-38900.5
-41702.9
-44565.9
-47674.9
-51457.2
-57003.4
31950.3
26795.4
23789.2
21827.9
20465.3
19490.5
18788.8
18289.2
17942.7
17712.3
17567.6
17482.2
17432.2
17395.2
17349.8
17275.4
17151.9
16960.1
16681.5
16298.5
15794.7
15154.9
14365.5
13414.9
12293.5
10993.8
9511.25
7843.73
5992.19
3960.61
1756.1
-611.12
-3127.76
-5777.63
-8541.87
-11399.3
-14327
-17300.6
-20295.4
-23287.3
-26253.8
-29175.9
-32040.1
-34842.6
-37594.4
-40332.7
-43142.8
-46211.4
-49966.4
-55498.9
31326.5
26170.3
23161.3
21195.9
19827.9
18846.4
18136.9
17628.4
17272.3
17031.8
16876.8
16781.5
16722.3
16677.4
16626
16548.1
16424.2
16235.9
15965.3
15595.4
15110.4
14495.7
13738.3
12826.9
11752.3
10507.4
9087.62
7490.93
5718.19
3773.12
1662.44
-604.167
-3014.12
-5552.06
-8200.12
-10938.3
-13744.7
-16596.7
-19470.8
-22344.3
-25196.5
-28009.9
-30772.6
-33482.2
-36151.4
-38818.4
-41570
-44593.8
-48318.5
-53835.7
30636.4
25478.9
22467.5
20498.4
19125.3
18137.6
17420.6
16903.7
16538.2
16287.7
16122.6
16017.4
15949
15896.3
15839.1
15758
15634.3
15450.3
15188.7
14833.3
14369
13781.9
13059.3
12190.7
11167.1
9981.63
8630
7110.21
5423
3571.83
1562.98
-594.442
-2888.59
-5305.01
-7826.91
-10435.5
-13110.2
-15829.8
-18572.6
-21317.3
-24045
-26739.8
-29391.7
-31999.9
-34578.6
-37167.7
-39855.2
-42829.9
-46521.3
-52021.6
29879.4
24721
21707.5
19735.4
18358.2
17365.1
16641.5
16116.8
15742.7
15482.9
15308.2
15193.4
15116.4
15056.2
14993.6
14909.8
14787
14608
14356.6
14017.3
13575.6
13018.2
12333.3
11510.6
10541.7
9420.19
8141.73
6704.46
5108.98
3358.49
1458.84
-581.475
-2751.4
-5037.46
-7423.96
-9893.36
-12426.7
-15004
-17605.4
-20211.5
-22805
-25371.8
-27904
-30402.5
-32883.3
-35387.9
-38005.8
-40927
-44582.2
-50064.2
29054
23895
20880.5
18906.5
17526.4
16529.3
15800.6
15269.6
14888.2
14620.1
14436.7
14313.4
14228.2
14161.4
14093.9
14008.2
13887
13714.2
13474.2
13152.3
12734.9
12209.4
11564.7
10791.1
9880.52
8826.91
7626.19
6276.55
4778.47
3134.87
1351.16
-564.824
-2602.84
-4750.4
-6993.01
-9314.46
-11697.3
-14123.2
-16573.9
-19032
-21482.1
-23912.2
-26316.1
-28696.8
-31072.2
-33485.6
-36028.3
-38891.8
-42507.7
-47969.9
28157.5
22998.7
19984.3
18010.1
16629.2
15630.4
14898.8
14363.6
13976.6
13702
13511.4
13380.7
13288.6
13216
13144.7
13057.9
12939.3
12773.7
12546.2
12243.3
11851.9
11360.5
10758.4
10036.5
9187.48
8205.47
7086.67
5829.29
4433.75
2902.67
1240.99
-544.099
-2443.21
-4444.88
-6535.84
-8701.26
-10925.2
-13191.1
-15482.5
-17784
-20081.9
-22366.5
-24633.7
-26888.7
-29151.2
-31466.9
-33928.6
-36729.7
-40303.2
-45743.9
27185.4
22027.8
19015.4
17043.7
15665
14667.6
13936.1
13399.6
13009.8
12731
12535.3
12398.9
12301.4
12224.3
12150.3
12063.5
11948.7
11791.3
11577.7
11295.1
10931.5
10475.9
9918.6
9251.15
8466.56
7559.48
6526.32
5365.39
4076.99
2663.49
1129.32
-518.973
-2272.87
-4121.97
-6054.23
-8056.26
-10113.7
-12211.7
-14335.7
-16472.1
-18609.6
-20740.4
-22862.6
-24983.6
-27125.7
-29336.4
-31711
-34444.6
-37972
-43389.4
26130.9
20976
17968.6
16003.1
14630.9
13639.3
12912.3
12378.4
11989.3
11709.5
11511.1
11371.3
11270.3
11190.3
11115.1
11029.6
10919.7
10771.8
10573.4
10312.5
9978.13
9560.21
9049.76
8438.99
7721.5
6892.33
5948.16
4887.39
3710.25
2418.8
1017.03
-489.206
-2092.25
-3782.77
-5549.98
-7381.92
-9265.82
-11188.6
-13137.6
-15101.1
-17070
-19038.7
-21007.5
-22986.2
-24999.5
-27097.4
-29377.6
-32037.9
-35515
-40906.8
24983.8
19834
16835.8
14882
13522.5
12543
11826.3
11300.3
10916.5
10639.4
10441.8
10301.3
10198.9
10117.9
10043.1
9960.39
9856.68
9719.63
9537.63
9299.85
8996.23
8617.62
8155.86
7603.87
6955.82
6207.2
5354.97
4397.65
3335.36
2169.93
904.857
-454.66
-1901.84
-3428.43
-5024.89
-6680.7
-8384.68
-10125.5
-11892.3
-13675.5
-15467.8
-17266
-19072.7
-20900.1
-22775.3
-24751.2
-26928.7
-29508.1
-32929.4
-38292.6
23728.9
18587.8
15605.4
13671.9
12334
11375.1
10676.6
10165.3
9792.49
9522.99
9330.01
9192.01
9090.97
9011.15
8938.48
8860.07
8763.98
8639.02
8474.73
8261.35
7989.87
7652.08
7240.67
6749.31
6172.77
5507.02
4749.32
3898.28
2954
1918.03
793.417
-415.314
-1702.24
-3060.17
-4480.82
-5955.06
-7473.3
-9025.9
-10603.8
-12199.4
-13807.4
-15426.6
-17061.9
-18727.8
-20454.3
-22297.3
-24360.9
-26849.7
-30207.4
-35537.8
22343.1
17217
14261
12360.4
11057.1
10131
9461.08
8973.28
8618.64
8362.43
8178.65
8046.8
7949.97
7873.68
7805.11
7732.64
7645.59
7534.02
7388.67
7200.92
6962.85
6667.23
6307.65
5878.54
5375.33
4794.44
4133.48
3391.19
2567.62
1664.07
683.152
-371.275
-1494.14
-2679.28
-3919.65
-5207.49
-6534.74
-7893.4
-9276.15
-10677.1
-12092.9
-13524.3
-14978.2
-16471.4
-18036.3
-19732.2
-21667.4
-24051.4
-27334.2
-32625.1
20790.7
15690.5
12778.9
10931.4
9682.03
8805.39
8177.79
7724.42
7396.51
7160.24
6990.8
6869.08
6779.59
6709.3
6646.82
6581.94
6505.34
6408.41
6283.16
6122.18
5918.66
5666.41
5359.94
4994.5
4566.14
4071.83
3509.49
2878.03
2177.45
1408.83
574.343
-322.788
-1278.32
-2287.13
-3343.33
-4440.53
-5572.1
-6731.6
-7913.31
-9112.98
-10328.9
-11563.3
-12824.9
-14132.1
-15519.9
-17050.4
-18836.5
-21094.5
-24283.7
-29523.9
19013.9
13960.6
11125.1
9363.56
8196.85
7392.8
6825.34
6419.73
6128.49
5919.55
5770
5662.58
5583.64
5521.82
5467.39
5411.69
5346.89
5265.76
5161.68
5028.47
4860.51
4652.67
4400.41
4099.81
3747.6
3341.28
2879.12
2360.2
1784.51
1152.89
467.109
-270.235
-1055.72
-1885.19
-2753.93
-3656.82
-4588.61
-5544.3
-6519.59
-7511.62
-8519.96
-9548.03
-10605.5
-11711.8
-12903.1
-14243.7
-15850.9
-17949.3
-21012.7
-26180.9
16912.7
11951.1
9251.5
7630.64
6589.45
5889.29
5404.11
5061.83
4818.23
4644.43
4520.4
4431.44
4366.12
4315.14
4270.59
4225.54
4173.73
4109.45
4027.45
3922.89
3791.34
3628.77
3431.63
3196.83
2921.82
2604.63
2243.9
1838.9
1389.6
896.661
361.411
-214.135
-827.345
-1475.04
-2153.59
-2859.11
-3587.64
-4335.48
-5099.57
-5878.18
-6671.7
-7484.08
-8325
-9213.58
-10185.1
-11303.5
-12688.1
-14571.6
-17448.8
-22500
14296.7
9536.05
7092.22
5704.16
4850.88
4294.96
3918.04
3655.97
3471.21
3340.18
3246.99
3180.27
3131.35
3093.27
3060.2
3027.04
2989.25
2942.68
2883.54
2808.33
2713.86
2597.25
2455.92
2287.68
2090.67
1863.49
1605.15
1315.12
993.382
640.382
257.071
-155.129
-594.355
-1058.36
-1544.59
-2050.31
-2572.77
-3109.44
-3658.33
-4218.49
-4790.69
-5378.62
-5990.75
-6643.69
-7368.57
-8223.78
-9322.72
-10898.7
-13469.6
-18294.3
10756.1
6505.28
4567.73
3563.55
2982.65
2618.17
2376.63
2211.01
2095.25
2013.57
1955.66
1914.27
1883.95
1860.41
1840.04
1819.74
1796.74
1768.53
1732.81
1687.47
1630.59
1560.43
1475.43
1374.27
1255.84
1119.28
964.005
789.697
596.329
384.173
153.792
-93.9648
-357.987
-636.936
-929.295
-1233.45
-1547.77
-1870.8
-2201.43
-2539.21
-2884.84
-3240.96
-3613.42
-4013.82
-4464.37
-5008.62
-5737.07
-6854.14
-8868.01
-13157.3
5261.71
2541.25
1623.4
1222.42
1009.17
880.522
796.865
740.065
700.581
672.81
653.155
639.12
628.85
620.882
614.003
607.167
599.445
589.996
578.05
562.902
543.907
520.485
492.118
458.362
418.848
373.288
321.485
263.334
198.824
128.046
51.187
-31.4713
-119.56
-212.634
-310.191
-411.695
-516.613
-624.464
-734.893
-847.777
-963.392
-1082.69
-1207.79
-1342.89
-1496.25
-1684.86
-1947.32
-2385.95
-3329.26
-6062.55
2545.54
1867.53
1416.53
1144.54
974.705
863.52
787.971
735.365
698.23
671.853
653.062
639.581
629.673
621.946
615.227
608.496
600.838
591.423
579.488
564.329
545.306
521.838
493.408
459.572
419.961
374.289
322.357
264.06
199.392
128.442
51.4002
-31.4478
-119.728
-212.99
-310.722
-412.373
-517.393
-625.27
-735.604
-848.199
-963.207
-1081.36
-1204.34
-1335.46
-1480.9
-1652.2
-1871.38
-2181.12
-2657.65
-3348.53
6517.27
5153.06
4075.86
3358.89
2887.14
2569.77
2350.97
2197.37
2088.42
2010.82
1955.45
1915.69
1886.44
1863.61
1843.72
1823.73
1800.92
1772.81
1737.12
1691.76
1634.79
1564.48
1479.29
1377.89
1259.17
1122.28
966.617
791.875
598.03
385.358
154.43
-93.8959
-358.495
-638.008
-930.891
-1235.49
-1550.12
-1873.24
-2203.6
-2540.54
-2884.4
-3237.18
-3603.52
-3992.53
-4420.9
-4918.53
-5538.24
-6368.4
-7522.13
-8924.93
9554.56
7877.29
6436.08
5412.89
4708.77
4220.9
3878.12
3634.57
3460.51
3335.95
3246.84
3182.75
3135.56
3098.64
3066.34
3033.69
2996.21
2949.81
2890.72
2815.46
2720.85
2604
2462.36
2293.71
2096.23
1868.48
1609.49
1318.75
996.213
642.355
258.131
-155.018
-595.205
-1060.15
-1547.26
-2053.73
-2576.72
-3113.57
-3662.06
-4220.9
-4790.32
-5373
-5975.58
-6611.05
-7302.72
-8090.7
-9041.15
-10252.8
-11821.4
-13562.9
11975.1
10149.6
8504.34
7284.32
6414.63
5795.94
5353.04
5034.27
4804.5
4639.2
4520.57
4435.12
4372.14
4322.72
4279.23
4234.86
4183.48
4119.43
4037.5
3932.86
3801.1
3638.21
3440.63
3205.27
2929.59
2611.61
2249.97
1843.97
1393.56
899.416
362.89
-213.985
-828.544
-1477.56
-2157.36
-2863.95
-3593.25
-4341.38
-5105.01
-5881.94
-6671.85
-7477.45
-8306.14
-9172.68
-10103.2
-11141.3
-12355.3
-13838.7
-15662
-17577.3
13989.1
12088.3
10327.2
8983.24
8000.14
7285.83
6766.12
6387.66
6112.67
5913.85
5770.8
5667.66
5591.56
5531.68
5478.55
5423.7
5359.42
5278.58
5174.57
5041.26
4873.04
4664.78
4411.96
4110.63
3757.57
3350.24
2886.91
2366.7
1789.58
1156.43
469.001
-270.051
-1057.27
-1888.46
-2758.81
-3663.1
-4595.93
-5552.07
-6526.9
-7517.03
-8521.16
-9541.31
-10584.6
-11665.7
-12810.9
-14063.2
-15488
-17169.7
-19159.3
-21175.3
15722.7
13781
11952.2
10530.4
9471.21
8689.28
8113.03
7689.36
7379.49
7154.59
6992.55
6875.72
6789.54
6721.48
6660.52
6596.64
6520.66
6424.06
6298.89
6137.78
5933.93
5681.17
5374.01
5007.69
4578.29
4082.75
3518.99
2885.95
2183.64
1413.14
576.643
-322.576
-1280.24
-2291.15
-3349.34
-4448.29
-5581.2
-6741.36
-7922.69
-9120.34
-10331.7
-11557.4
-12803.4
-14083.3
-15421.7
-16859.3
-18456.6
-20290.1
-22397.3
-24479.3
17252.3
15287.2
13417.8
11946.9
10837.5
10009.1
9392.85
8936.51
8601.21
8357.33
8181.63
8055.19
7962.02
7888.23
7821.36
7750.03
7663.68
7552.47
7407.2
7219.3
6980.84
6684.62
6324.21
5894.08
5389.63
4807.29
4144.67
3400.52
2574.9
1669.14
685.851
-371.042
-1496.42
-2684.06
-3926.8
-5216.76
-6545.66
-7905.24
-9287.76
-10686.7
-12097.8
-13520
-14957.5
-16421.9
-17935.6
-19535.8
-21278.8
-23234.5
-25431.5
-27561.9
18625.8
16646.7
14752.8
13251.1
12109.1
11249.9
10606.5
10127.9
9775.32
9518.85
9334.48
9202.3
9105.21
9028.11
8957.3
8880.14
8784.81
8660.24
8496.04
8282.47
8010.54
7672.05
7259.7
6767.16
6189.2
5521.78
4762.17
3909
2962.37
1923.84
796.509
-415.064
-1704.9
-3065.72
-4489.13
-5965.86
-7486.1
-9039.91
-10617.8
-12211.5
-13814.6
-15424.4
-17042.8
-18679.2
-20353.3
-22099.1
-23968.8
-26027.2
-28297.5
-30466.3
19874
17886.7
15977.9
14457.2
13294.9
12416.1
11755.5
11263
10900.1
10636.6
10448
10313.6
10215.4
10137.3
10064.5
9983.11
9880.22
9743.58
9561.66
9323.65
9019.53
8640.13
8177.31
7623.99
6974.33
6223.84
5369.46
4409.73
3344.78
2176.47
908.331
-454.399
-1904.87
-3434.74
-5034.37
-6693.04
-8399.38
-10141.7
-11908.8
-13690.2
-15477.8
-17266.5
-19056.1
-20853.5
-22675.7
-24553.7
-26536.1
-28684.2
-31017.2
-33218.4
21017.6
19025.6
17108.1
15576.3
14402
13511.9
12841.6
12341.8
11974
11708.1
11519.1
11385.7
11289.1
11212.1
11139
11054.9
10945.9
10798.4
10600.1
10338.9
10004
9585.2
9073.57
8461.33
7742.05
6910.8
5964.25
4900.81
3720.71
2426.06
1020.87
-488.938
-2095.65
-3789.84
-5560.61
-7395.81
-9282.44
-11207.1
-13156.6
-15118.7
-17083
-19042.2
-20993.9
-22942.5
-24902.4
-26901.9
-28986.7
-31215.1
-33603.6
-35833.1
22070.5
20076
18153.9
16616.3
15436
14540.4
13866.2
13364
12995.9
12731.4
12545.2
12415.4
12322.5
12248.5
12176.8
12091.4
11977.5
11820.6
11607.1
11324.1
10959.9
10503.3
9944.72
9275.65
8489.1
7579.74
6543.97
5380.1
4088.47
2671.45
1133.53
-518.701
-2276.64
-4129.8
-6066.01
-8071.68
-10132.2
-12232.5
-14357.3
-16492.5
-18625.6
-20747.1
-22852.3
-24943.2
-27031.8
-29143.9
-31322.9
-33624.4
-36063
-38318
23042.3
21046.6
19122.7
17582.9
16400.7
15504
14829.9
14329.4
13964.3
13704.2
13523.4
13399.4
13312
13242.6
13173.6
13088.3
12970.7
12805.5
12578.1
12274.8
11882.7
11390.2
10786.7
10063.1
9211.95
8227.46
7105.82
5845.26
4446.2
2911.31
1245.55
-543.826
-2447.34
-4453.46
-6548.74
-8718.19
-10945.6
-13214.1
-15506.8
-17807.3
-20101.1
-22376.7
-24627
-26851.8
-29061
-31278.1
-33544.1
-35913
-38397.6
-40675.9
23939.2
21943.5
20019.5
18480
17298.8
16404.1
15733.1
15237
14877.6
14624.2
14450.7
14334.2
14253.8
14190.3
14125.2
14041
13920.8
13748.4
13508.4
13186.2
12768
12241.4
11595.2
10819.7
9906.84
8850.56
7646.8
6293.72
4791.86
3144.16
1356.05
-564.552
-2607.33
-4759.7
-7007
-9332.86
-11719.5
-14148.4
-16600.7
-19058.2
-21504.4
-23925.7
-26312.9
-28663.7
-30985.8
-33300.7
-35647.8
-38079.1
-40606
-42905.8
24765.4
22770.3
20847.5
19310
18131.7
17241.1
16575.4
16085.8
15733.9
15488.8
15324.1
15216.3
15144.1
15087.4
15027.1
14944.9
14823
14644.6
14393.2
14053.5
13610.9
13052.3
12365.8
11541.1
10569.8
9445.43
8163.72
6722.79
5123.27
3368.4
1464.05
-581.204
-2756.23
-5047.44
-7439
-9913.17
-12450.7
-15031.4
-17634.6
-20240.5
-22830.4
-25388.7
-27904.4
-30373.2
-32800.8
-35207
-37629.3
-40118.4
-42684.7
-45004.3
25523.5
23529.3
21608.6
20074.2
18900.2
18015.1
17356
16874.2
16531.1
16295.5
16140.4
16042.2
15978.8
15929.6
15874.8
15795.2
15672.6
15489
15227.5
14871.7
14406.5
13818
13093.8
12223
11196.8
10008.4
8653.29
7129.63
5438.14
3582.31
1568.49
-594.175
-2893.74
-5315.65
-7842.95
-10456.6
-13136
-15859.2
-18604.1
-21349
-24073.4
-26759.9
-29395.6
-31974.3
-34500
-36990.8
-39482.9
-42025.5
-44628
-46966
26214.8
24221.9
22303.6
20773.1
19604.1
18725.3
18073.8
17600.6
17266.9
17041.3
16896.5
16808.2
16754
16712.6
16663.7
16587.4
16464.6
16276.8
16006.1
15635.7
15149.8
14533.8
13774.6
12861
11783.7
10535.6
9112.14
7511.37
5734.12
3784.16
1668.23
-603.904
-3019.57
-5563.31
-8217.1
-10960.7
-13772.1
-16628
-19504.6
-22378.5
-25227.8
-28033.1
-30779.8
-33460.2
-36076.5
-38645.4
-41201.7
-43793.6
-46429.4
-48784.2
26839.8
24848.2
22932.7
21406.3
20242.8
19370.7
18727.1
18262.8
17938.9
17723.4
17588.9
17510.7
17465.7
17432.3
17389.4
17316.6
17194.2
17002.8
16724.2
16340.7
15835.9
15194.7
14403.5
13450.5
12326.2
11023.3
9536.9
7865.11
6008.86
3972.15
1762.15
-610.861
-3133.5
-5789.46
-8559.72
-11422.9
-14355.8
-17333.7
-20331.4
-23323.9
-26287.7
-29202
-32050.5
-34823.9
-37523.1
-40163.3
-42778.2
-45415
-48081.3
-50451.4
27398.3
25408.2
23495.5
21973.3
20815.3
19950
19314.3
18858.8
18544.4
18338.9
18214.5
18146
18110
18084.4
18047.5
17978.3
17856.6
17662.4
17376.9
16981.7
16460
15796.1
14975.9
13987.4
12820.5
11467.8
9924.29
8188.02
6260.02
4144.54
1849.09
-615.528
-3235.31
-5993.15
-8869.15
-11840.9
-14884
-17972.5
-21079.9
-24179.9
-27247.5
-30260.4
-33200.9
-36058.4
-38832.4
-41537
-44204.8
-46882.1
-49575.7
-51959.6
27889.9
25901.1
23991.2
22473.1
21320.4
20461.6
19833.5
19386.3
19081
18884.9
18770
18710.7
18683.2
18664.9
18633.7
18568.2
18447.4
18251
17959.4
17554.1
17017.5
16333.5
15487.6
14467.4
13262.6
11865.6
10271.1
8477.37
6485.38
4299.63
1927.97
-618.379
-3324.81
-6173.53
-9143.81
-12212.3
-15353.6
-18540.8
-21745.9
-24941.6
-28101.5
-31202.1
-34224.4
-37156.6
-39997.1
-42758.9
-45473.6
-48186.8
-50904.7
-53300.9
28313.7
26326.2
24418.8
22904.5
21756.8
20904
20282.7
19843.3
19546.2
19358.7
19252.4
19201.5
19181.8
19170.2
19144.3
19082.1
18962.3
18764.2
18467.7
18053.6
17504.1
16802.7
15934.5
14886.8
13649
12213.3
10574.5
8730.62
6682.86
4435.85
1997.73
-619.868
-3401.84
-6329.78
-9382.25
-12535.1
-15762
-19035
-22325.3
-25604.3
-28844.5
-32021.4
-35114.9
-38112
-41010.3
-43821.7
-46577.2
-49321.5
-52060.5
-54467.3
28668.7
26682.4
24777.3
23266.3
22122.9
21275.4
20660.3
20227.6
19937.8
19757.8
19659.1
19615.5
19602.5
19596.8
19575.5
19516.4
19397.7
19198.2
18897.6
18476.3
17916
17199.9
16312.9
15242
13976.4
12508
10831.7
8945.48
6850.56
4551.75
2057.43
-620.411
-3466.25
-6461.18
-9583.12
-12807.3
-16106.5
-19452.1
-22814.3
-26163.6
-29471.7
-32713
-35866.6
-38918.5
-41865.5
-44718.8