/*--------------------------------*- C++ -*----------------------------------*\
| =========                 |                                                 |
| \\      /  F ield         | OpenFOAM: The Open Source CFD Toolbox           |
|  \\    /   O peration     | Version:  5.x                                   |
|   \\  /    A nd           | Web:      www.OpenFOAM.org                      |
|    \\/     M anipulation  |                                                 |
\*---------------------------------------------------------------------------*/
FoamFile
{
    version     2.0;
    format      ascii;
    class       volScalarField;
    location    "0.8";
    object      gradTz;
}
// * * * * * * * * * * * * * * * * * * * * * * * * * * * * * * * * * * * * * //

dimensions      [0 -1 0 1 0 0 0];

internalField   nonuniform List<scalar> 
25000
(
-6334
-6850.69
-7000.11
-7052.7
-7074.33
-7084.14
-7088.69
-7090.64
-7091.17
-7090.89
-7090.11
-7089.02
-7087.73
-7086.3
-7084.8
-7083.23
-7081.64
-7080.04
-7078.44
-7076.86
-7075.32
-7073.83
-7072.4
-7071.06
-7069.81
-7068.69
-7067.7
-7066.85
-7066.18
-7065.7
-7065.41
-7065.34
-7065.49
-7065.88
-7066.5
-7067.35
-7068.42
-7069.69
-7071.11
-7072.61
-7074.08
-7075.32
-7076
-7075.5
-7072.59
-7064.62
-7044.98
-6994.51
-6847.29
-6332.86
-6850.69
-7840.22
-8183.43
-8318.4
-8377.41
-8404.98
-8417.96
-8423.51
-8424.97
-8424.05
-8421.68
-8418.39
-8414.5
-8410.23
-8405.71
-8401.02
-8396.24
-8391.44
-8386.64
-8381.91
-8377.29
-8372.81
-8368.54
-8364.52
-8360.79
-8357.41
-8354.44
-8351.92
-8349.9
-8348.45
-8347.59
-8347.37
-8347.83
-8348.98
-8350.84
-8353.4
-8356.62
-8360.43
-8364.7
-8369.23
-8373.67
-8377.46
-8379.62
-8378.39
-8370.36
-8348.3
-8295.26
-8166.63
-7830.03
-6847.28
-7000.13
-8183.47
-8630.34
-8818.37
-8904.53
-8945.95
-8965.72
-8974.12
-8976.14
-8974.4
-8970.33
-8964.79
-8958.3
-8951.17
-8943.62
-8935.81
-8927.86
-8919.85
-8911.87
-8904
-8896.3
-8888.86
-8881.74
-8875.04
-8868.84
-8863.22
-8858.26
-8854.07
-8850.72
-8848.29
-8846.86
-8846.5
-8847.26
-8849.18
-8852.28
-8856.54
-8861.91
-8868.27
-8875.41
-8883.01
-8890.52
-8897.04
-8901.04
-8899.84
-8888.32
-8856.06
-8779.85
-8602.37
-8166.51
-6994.45
-7052.75
-8318.55
-8818.51
-9037.99
-9141.98
-9193.08
-9217.67
-9227.95
-9230.04
-9227.21
-9221.32
-9213.47
-9204.32
-9194.32
-9183.75
-9172.84
-9161.72
-9150.53
-9139.38
-9128.37
-9117.61
-9107.21
-9097.27
-9087.91
-9079.24
-9071.38
-9064.46
-9058.59
-9053.9
-9050.51
-9048.51
-9048
-9049.06
-9051.75
-9056.09
-9062.05
-9069.57
-9078.5
-9088.55
-9099.28
-9109.99
-9119.49
-9125.83
-9125.6
-9112.53
-9074.24
-8984.15
-8779.43
-8294.84
-7044.81
-7074.45
-8377.74
-8904.95
-9142.32
-9257.22
-9314.46
-9342.03
-9353.21
-9354.84
-9350.64
-9342.76
-9332.51
-9320.67
-9307.79
-9294.21
-9280.19
-9265.93
-9251.57
-9237.27
-9223.16
-9209.36
-9196.02
-9183.28
-9171.27
-9160.15
-9150.07
-9141.19
-9133.66
-9127.65
-9123.29
-9120.72
-9120.06
-9121.42
-9124.87
-9130.44
-9138.1
-9147.78
-9159.28
-9172.27
-9186.22
-9200.27
-9213.03
-9222.21
-9223.93
-9211.14
-9170.33
-9073.25
-8854.81
-8347.33
-7064.26
-7084.36
-8405.6
-8946.83
-9194.01
-9315.12
-9375.82
-9404.84
-9416.06
-9416.73
-9410.88
-9400.87
-9388.13
-9373.58
-9357.81
-9341.23
-9324.13
-9306.74
-9289.25
-9271.83
-9254.63
-9237.83
-9221.58
-9206.05
-9191.42
-9177.87
-9165.59
-9154.77
-9145.6
-9138.26
-9132.94
-9129.81
-9129
-9130.66
-9134.86
-9141.64
-9151
-9162.83
-9176.91
-9192.88
-9210.12
-9227.65
-9243.92
-9256.43
-9260.93
-9249.92
-9209.25
-9109.85
-8885.74
-8368.55
-7071.94
-7089.06
-8419.01
-8967.28
-9219.49
-9343.74
-9405.97
-9435.27
-9445.83
-9445.12
-9437.39
-9425.11
-9409.84
-9392.55
-9373.89
-9354.32
-9334.17
-9313.69
-9293.1
-9272.59
-9252.36
-9232.58
-9213.46
-9195.18
-9177.96
-9162.01
-9147.55
-9134.81
-9124.01
-9115.37
-9109.1
-9105.4
-9104.45
-9106.39
-9111.33
-9119.32
-9130.36
-9144.33
-9161
-9179.96
-9200.53
-9221.66
-9241.68
-9257.89
-9265.84
-9257.75
-9219.09
-9120.41
-8895.35
-8375.38
-7074.44
-7091.2
-8425.13
-8976.61
-9231.02
-9356.43
-9418.88
-9447.61
-9456.96
-9454.57
-9444.75
-9430.11
-9412.25
-9392.22
-9370.69
-9348.17
-9325
-9301.47
-9277.83
-9254.29
-9231.06
-9208.36
-9186.41
-9165.42
-9145.65
-9127.33
-9110.73
-9096.09
-9083.68
-9073.75
-9066.54
-9062.28
-9061.18
-9063.4
-9069.07
-9078.26
-9090.95
-9107.05
-9126.29
-9148.25
-9172.19
-9197
-9220.91
-9241.13
-9253.03
-9248.65
-9213.27
-9117.22
-8894
-8375.03
-7074.41
-7091.98
-8427.33
-8979.84
-9234.74
-9360.06
-9421.86
-9449.44
-9457.2
-9452.87
-9440.85
-9423.78
-9403.32
-9380.55
-9356.18
-9330.75
-9304.62
-9278.1
-9251.46
-9224.94
-9198.78
-9173.21
-9148.48
-9124.84
-9102.56
-9081.92
-9063.21
-9046.71
-9032.72
-9021.51
-9013.38
-9008.57
-9007.31
-9009.8
-9016.18
-9026.54
-9040.87
-9059.06
-9080.86
-9105.79
-9133.11
-9161.64
-9189.55
-9213.95
-9230.14
-9230.01
-9198.72
-9106.5
-8886.74
-8370.87
-7073.06
-7092.01
-8427.34
-8979.62
-9233.99
-9358.43
-9419.01
-9445.03
-9450.96
-9444.55
-9430.24
-9410.72
-9387.66
-9362.18
-9335.02
-9306.73
-9277.7
-9248.27
-9218.7
-9189.28
-9160.24
-9131.87
-9104.42
-9078.19
-9053.46
-9030.56
-9009.78
-8991.46
-8975.92
-8963.47
-8954.42
-8949.07
-8947.65
-8950.4
-8957.48
-8968.98
-8984.91
-9005.16
-9029.46
-9057.33
-9088
-9120.25
-9152.2
-9180.9
-9201.56
-9206.01
-9179.31
-9091.61
-8876.26
-8364.65
-7071
-7091.61
-8426.1
-8977.41
-9230.64
-9353.73
-9412.73
-9436.97
-9440.91
-9432.34
-9415.71
-9393.73
-9368.11
-9339.97
-9310.09
-9279.02
-9247.17
-9214.89
-9182.48
-9150.23
-9118.41
-9087.32
-9057.23
-9028.48
-9001.37
-8976.25
-8953.47
-8933.37
-8916.32
-8902.66
-8892.72
-8886.83
-8885.26
-8888.26
-8896.01
-8908.61
-8926.1
-8948.35
-8975.1
-9005.86
-9039.83
-9075.76
-9111.74
-9144.76
-9169.97
-9179.15
-9157.3
-9074.5
-8864.06
-8357.35
-7068.57
-7090.97
-8424.15
-8974.08
-9225.82
-9347.29
-9404.52
-9426.84
-9428.72
-9417.96
-9399.02
-9374.62
-9346.5
-9315.78
-9283.26
-9249.49
-9214.91
-9179.89
-9144.73
-9109.75
-9075.24
-9041.51
-9008.88
-8977.69
-8948.28
-8921.02
-8896.3
-8874.48
-8855.97
-8841.13
-8830.33
-8823.91
-8822.19
-8825.42
-8833.81
-8847.48
-8866.47
-8890.66
-8919.79
-8953.35
-8990.54
-9030.07
-9070.01
-9107.3
-9137.07
-9151.01
-9134.1
-9056.36
-8851.06
-8349.54
-7065.96
-7090.2
-8421.83
-8970.17
-9220.24
-9339.94
-9395.31
-9415.67
-9415.48
-9402.55
-9381.34
-9354.6
-9324.05
-9290.85
-9255.78
-9219.42
-9182.22
-9144.56
-9106.77
-9069.17
-9032.08
-8995.83
-8960.75
-8927.21
-8895.59
-8866.28
-8839.69
-8816.22
-8796.29
-8780.32
-8768.68
-8761.76
-8759.88
-8763.33
-8772.33
-8787.03
-8807.45
-8833.51
-8864.93
-8901.19
-8941.49
-8984.52
-9028.3
-9069.77
-9104
-9122.65
-9110.64
-9037.97
-8837.85
-8341.58
-7063.31
-7089.38
-8419.35
-8966
-9214.33
-9332.24
-9385.74
-9404.14
-9401.92
-9386.87
-9363.48
-9334.48
-9301.61
-9266.03
-9228.53
-9189.71
-9150.02
-9109.85
-9069.55
-9029.46
-8989.9
-8951.24
-8913.83
-8878.06
-8844.33
-8813.06
-8784.68
-8759.64
-8738.37
-8721.3
-8708.87
-8701.45
-8699.42
-8703.08
-8712.66
-8728.32
-8750.12
-8777.95
-8811.55
-8850.4
-8893.67
-8940.05
-8987.53
-9033.03
-9071.56
-9094.78
-9087.56
-9019.84
-8824.81
-8333.72
-7060.68
-7088.55
-8416.85
-8961.8
-9208.41
-9324.54
-9376.2
-9392.71
-9388.54
-9371.47
-9346
-9314.86
-9279.79
-9241.95
-9202.16
-9161.01
-9118.96
-9076.43
-9033.76
-8991.31
-8949.43
-8908.5
-8868.89
-8831.01
-8795.28
-8762.16
-8732.09
-8705.55
-8683.01
-8664.91
-8651.72
-8643.84
-8641.66
-8645.5
-8655.62
-8672.2
-8695.28
-8724.79
-8760.45
-8801.75
-8847.83
-8897.39
-8948.39
-8997.71
-9040.36
-9067.95
-9065.31
-9002.35
-8812.22
-8326.12
-7058.14
-7087.74
-8414.41
-8957.73
-9202.66
-9317.09
-9367
-9381.72
-9375.69
-9356.72
-9329.29
-9296.14
-9259.01
-9219.07
-9177.13
-9133.8
-9089.56
-9044.81
-8999.93
-8955.28
-8911.24
-8868.18
-8826.51
-8786.65
-8749.06
-8714.21
-8682.56
-8654.62
-8630.88
-8611.82
-8597.91
-8589.59
-8587.26
-8591.28
-8601.9
-8619.33
-8643.62
-8674.69
-8712.27
-8755.85
-8804.58
-8857.11
-8911.41
-8964.33
-9010.85
-9042.56
-9044.24
-8985.78
-8800.28
-8318.92
-7055.74
-7086.97
-8412.11
-8953.88
-9197.24
-9310.06
-9358.34
-9371.38
-9363.64
-9342.9
-9313.65
-9278.64
-9239.61
-9197.73
-9153.82
-9108.48
-9062.21
-9015.42
-8968.5
-8921.82
-8875.77
-8830.74
-8787.17
-8745.5
-8706.18
-8669.72
-8636.62
-8607.38
-8582.53
-8562.57
-8548
-8539.27
-8536.81
-8540.98
-8552.07
-8570.27
-8595.67
-8628.18
-8667.54
-8713.23
-8764.39
-8819.67
-8877.03
-8933.28
-8983.4
-9018.92
-9024.62
-8970.34
-8789.16
-8312.21
-7053.49
-7086.27
-8409.99
-8950.33
-9192.24
-9303.6
-9350.38
-9361.88
-9352.56
-9330.21
-9299.32
-9262.62
-9221.86
-9178.21
-9132.5
-9085.33
-9037.22
-8988.57
-8939.79
-8891.27
-8843.39
-8796.59
-8751.28
-8707.95
-8667.06
-8629.14
-8594.71
-8564.29
-8538.43
-8517.66
-8502.48
-8493.37
-8490.78
-8495.09
-8506.59
-8525.5
-8551.9
-8585.73
-8626.7
-8674.31
-8727.69
-8785.48
-8845.61
-8904.91
-8958.29
-8997.3
-9006.67
-8956.22
-8778.99
-8306.07
-7051.44
-7085.63
-8408.08
-8947.13
-9187.75
-9297.78
-9343.21
-9353.34
-9342.62
-9318.83
-9286.46
-9248.25
-9205.94
-9160.72
-9113.4
-9064.61
-9014.85
-8964.54
-8914.1
-8863.93
-8814.43
-8766.03
-8719.18
-8674.36
-8632.07
-8592.84
-8557.22
-8525.75
-8498.98
-8477.47
-8461.75
-8452.31
-8449.6
-8454.03
-8465.9
-8485.44
-8512.73
-8547.72
-8590.14
-8639.46
-8694.82
-8754.85
-8817.47
-8879.48
-8935.8
-8977.93
-8990.59
-8943.56
-8769.87
-8300.57
-7049.6
-7085.07
-8406.4
-8944.33
-9183.81
-9292.68
-9336.94
-9345.87
-9333.92
-9308.87
-9275.21
-9235.68
-9192.03
-9145.43
-9096.71
-9046.5
-8995.3
-8943.55
-8891.67
-8840.05
-8789.13
-8739.34
-8691.13
-8645.02
-8601.51
-8561.14
-8524.47
-8492.08
-8464.52
-8442.37
-8426.17
-8416.43
-8413.62
-8418.15
-8430.34
-8450.43
-8478.5
-8514.51
-8558.18
-8609
-8666.09
-8728.07
-8792.86
-8857.25
-8916.13
-8960.98
-8976.52
-8932.49
-8761.89
-8295.75
-7047.99
-7084.6
-8404.98
-8941.95
-9180.46
-9288.36
-9331.62
-9339.53
-9326.54
-9300.43
-9265.68
-9225.04
-9180.25
-9132.48
-9082.58
-9031.17
-8978.76
-8925.79
-8872.68
-8819.85
-8767.72
-8716.75
-8667.4
-8620.19
-8575.64
-8534.3
-8496.76
-8463.58
-8435.35
-8412.66
-8396.05
-8386.06
-8383.16
-8387.77
-8400.24
-8420.78
-8449.52
-8486.38
-8531.12
-8583.2
-8641.75
-8705.39
-8772.01
-8838.41
-8899.46
-8946.62
-8964.59
-8923.1
-8755.12
-8291.67
-7046.62
-7084.22
-8403.83
-8940.02
-9177.75
-9284.86
-9327.31
-9334.4
-9320.57
-9293.59
-9257.97
-9216.42
-9170.7
-9122
-9071.14
-9018.76
-8965.36
-8911.4
-8857.29
-8803.48
-8750.37
-8698.45
-8648.17
-8600.07
-8554.68
-8512.56
-8474.3
-8440.49
-8411.72
-8388.58
-8371.64
-8361.45
-8358.47
-8363.16
-8375.84
-8396.75
-8426.02
-8463.58
-8509.18
-8562.28
-8622.02
-8686.99
-8755.11
-8823.13
-8885.94
-8934.98
-8954.92
-8915.49
-8749.63
-8288.35
-7045.52
-7083.93
-8402.95
-8938.56
-9175.7
-9282.2
-9324.05
-9330.51
-9316.04
-9288.42
-9252.12
-9209.89
-9163.48
-9114.06
-9062.48
-9009.35
-8955.21
-8900.5
-8845.65
-8791.08
-8737.24
-8684.59
-8633.61
-8584.84
-8538.81
-8496.1
-8457.29
-8423
-8393.81
-8370.34
-8353.15
-8342.8
-8339.77
-8344.51
-8357.35
-8378.55
-8408.22
-8446.31
-8492.55
-8546.44
-8607.06
-8673.06
-8742.3
-8811.56
-8875.69
-8926.15
-8947.59
-8909.72
-8745.48
-8285.84
-7044.68
-7083.73
-8402.37
-8937.58
-9174.32
-9280.42
-9321.85
-9327.9
-9313
-9284.94
-9248.2
-9205.51
-9158.63
-9108.73
-9056.66
-9003.04
-8948.4
-8893.18
-8837.83
-8782.76
-8728.42
-8675.29
-8623.84
-8574.61
-8528.15
-8485.04
-8445.87
-8411.25
-8381.79
-8358.1
-8340.74
-8330.28
-8327.22
-8331.98
-8344.94
-8366.33
-8396.26
-8434.71
-8481.39
-8535.79
-8597.02
-8663.7
-8733.7
-8803.78
-8868.81
-8920.23
-8942.67
-8905.85
-8742.68
-8284.16
-7044.11
-7083.63
-8402.07
-8937.09
-9173.63
-9279.53
-9320.75
-9326.59
-9311.48
-9283.2
-9246.23
-9203.31
-9156.19
-9106.06
-9053.74
-8999.87
-8944.98
-8889.51
-8833.9
-8778.58
-8724
-8670.62
-8618.93
-8569.48
-8522.8
-8479.49
-8440.14
-8405.36
-8375.76
-8351.95
-8334.51
-8324
-8320.91
-8325.7
-8338.7
-8360.19
-8390.26
-8428.88
-8475.79
-8530.45
-8591.98
-8659
-8729.38
-8799.88
-8865.36
-8917.25
-8940.2
-8903.9
-8741.28
-8283.31
-7043.83
-7083.63
-8402.07
-8937.09
-9173.63
-9279.53
-9320.75
-9326.59
-9311.48
-9283.2
-9246.23
-9203.31
-9156.19
-9106.06
-9053.74
-8999.87
-8944.98
-8889.51
-8833.9
-8778.58
-8724
-8670.62
-8618.93
-8569.48
-8522.8
-8479.49
-8440.14
-8405.36
-8375.76
-8351.95
-8334.51
-8324
-8320.91
-8325.7
-8338.71
-8360.19
-8390.26
-8428.88
-8475.79
-8530.45
-8591.98
-8659
-8729.38
-8799.88
-8865.36
-8917.25
-8940.2
-8903.9
-8741.28
-8283.31
-7043.83
-7083.73
-8402.37
-8937.58
-9174.32
-9280.42
-9321.85
-9327.9
-9313
-9284.94
-9248.2
-9205.51
-9158.63
-9108.73
-9056.66
-9003.04
-8948.4
-8893.18
-8837.83
-8782.76
-8728.42
-8675.29
-8623.84
-8574.61
-8528.15
-8485.04
-8445.87
-8411.25
-8381.79
-8358.1
-8340.74
-8330.28
-8327.22
-8331.99
-8344.94
-8366.33
-8396.27
-8434.71
-8481.4
-8535.8
-8597.03
-8663.7
-8733.7
-8803.79
-8868.82
-8920.23
-8942.67
-8905.85
-8742.69
-8284.16
-7044.11
-7083.93
-8402.95
-8938.56
-9175.7
-9282.2
-9324.05
-9330.51
-9316.04
-9288.42
-9252.12
-9209.89
-9163.48
-9114.06
-9062.47
-9009.35
-8955.21
-8900.5
-8845.65
-8791.08
-8737.24
-8684.59
-8633.61
-8584.84
-8538.81
-8496.1
-8457.29
-8423
-8393.81
-8370.34
-8353.16
-8342.8
-8339.78
-8344.51
-8357.35
-8378.55
-8408.22
-8446.31
-8492.56
-8546.44
-8607.07
-8673.06
-8742.31
-8811.57
-8875.7
-8926.16
-8947.6
-8909.73
-8745.48
-8285.85
-7044.68
-7084.22
-8403.83
-8940.02
-9177.75
-9284.86
-9327.31
-9334.4
-9320.57
-9293.59
-9257.97
-9216.42
-9170.7
-9122
-9071.14
-9018.75
-8965.36
-8911.39
-8857.29
-8803.47
-8750.37
-8698.44
-8648.17
-8600.07
-8554.68
-8512.56
-8474.3
-8440.49
-8411.72
-8388.58
-8371.65
-8361.45
-8358.48
-8363.16
-8375.84
-8396.76
-8426.03
-8463.59
-8509.19
-8562.29
-8622.03
-8687
-8755.12
-8823.14
-8885.95
-8934.99
-8954.93
-8915.5
-8749.64
-8288.36
-7045.52
-7084.6
-8404.98
-8941.95
-9180.46
-9288.36
-9331.62
-9339.53
-9326.54
-9300.43
-9265.68
-9225.04
-9180.25
-9132.48
-9082.58
-9031.17
-8978.76
-8925.78
-8872.68
-8819.84
-8767.72
-8716.74
-8667.4
-8620.19
-8575.64
-8534.31
-8496.76
-8463.58
-8435.36
-8412.66
-8396.06
-8386.06
-8383.17
-8387.78
-8400.25
-8420.79
-8449.53
-8486.39
-8531.13
-8583.21
-8641.76
-8705.4
-8772.03
-8838.42
-8899.47
-8946.64
-8964.6
-8923.11
-8755.13
-8291.67
-7046.62
-7085.07
-8406.4
-8944.33
-9183.8
-9292.68
-9336.94
-9345.86
-9333.91
-9308.87
-9275.21
-9235.68
-9192.03
-9145.43
-9096.71
-9046.5
-8995.3
-8943.55
-8891.67
-8840.05
-8789.13
-8739.33
-8691.13
-8645.02
-8601.51
-8561.14
-8524.48
-8492.08
-8464.53
-8442.38
-8426.18
-8416.44
-8413.63
-8418.16
-8430.35
-8450.44
-8478.52
-8514.52
-8558.2
-8609.02
-8666.1
-8728.09
-8792.88
-8857.26
-8916.14
-8961
-8976.53
-8932.5
-8761.89
-8295.75
-7047.99
-7085.63
-8408.08
-8947.13
-9187.75
-9297.78
-9343.21
-9353.34
-9342.62
-9318.83
-9286.46
-9248.24
-9205.94
-9160.71
-9113.4
-9064.61
-9014.84
-8964.54
-8914.1
-8863.93
-8814.43
-8766.02
-8719.17
-8674.36
-8632.07
-8592.84
-8557.22
-8525.75
-8498.99
-8477.48
-8461.75
-8452.31
-8449.61
-8454.04
-8465.91
-8485.45
-8512.75
-8547.74
-8590.16
-8639.48
-8694.84
-8754.87
-8817.49
-8879.5
-8935.82
-8977.95
-8990.6
-8943.58
-8769.88
-8300.57
-7049.6
-7086.27
-8409.99
-8950.33
-9192.24
-9303.6
-9350.37
-9361.88
-9352.56
-9330.21
-9299.32
-9262.61
-9221.85
-9178.21
-9132.49
-9085.33
-9037.22
-8988.57
-8939.79
-8891.26
-8843.39
-8796.58
-8751.28
-8707.95
-8667.06
-8629.14
-8594.71
-8564.3
-8538.44
-8517.66
-8502.48
-8493.38
-8490.79
-8495.1
-8506.61
-8525.52
-8551.92
-8585.74
-8626.72
-8674.33
-8727.71
-8785.5
-8845.63
-8904.93
-8958.31
-8997.32
-9006.69
-8956.24
-8779
-8306.08
-7051.44
-7086.97
-8412.11
-8953.88
-9197.24
-9310.06
-9358.34
-9371.38
-9363.63
-9342.89
-9313.65
-9278.64
-9239.61
-9197.73
-9153.81
-9108.48
-9062.21
-9015.42
-8968.49
-8921.81
-8875.76
-8830.74
-8787.17
-8745.49
-8706.18
-8669.72
-8636.62
-8607.39
-8582.54
-8562.58
-8548.01
-8539.28
-8536.82
-8540.99
-8552.08
-8570.29
-8595.68
-8628.2
-8667.56
-8713.25
-8764.41
-8819.7
-8877.05
-8933.3
-8983.42
-9018.94
-9024.64
-8970.36
-8789.18
-8312.22
-7053.49
-7087.74
-8414.41
-8957.73
-9202.66
-9317.09
-9367
-9381.71
-9375.69
-9356.72
-9329.29
-9296.13
-9259.01
-9219.07
-9177.13
-9133.8
-9089.56
-9044.81
-8999.93
-8955.28
-8911.23
-8868.17
-8826.5
-8786.65
-8749.06
-8714.21
-8682.56
-8654.63
-8630.88
-8611.82
-8597.91
-8589.6
-8587.27
-8591.29
-8601.92
-8619.34
-8643.63
-8674.71
-8712.29
-8755.88
-8804.6
-8857.13
-8911.43
-8964.35
-9010.88
-9042.58
-9044.26
-8985.8
-8800.3
-8318.93
-7055.74
-7088.55
-8416.85
-8961.8
-9208.41
-9324.54
-9376.2
-9392.71
-9388.54
-9371.47
-9346
-9314.85
-9279.78
-9241.95
-9202.16
-9161
-9118.96
-9076.42
-9033.75
-8991.31
-8949.43
-8908.49
-8868.88
-8831
-8795.28
-8762.16
-8732.1
-8705.56
-8683.01
-8664.92
-8651.72
-8643.85
-8641.67
-8645.51
-8655.64
-8672.22
-8695.3
-8724.81
-8760.47
-8801.77
-8847.85
-8897.41
-8948.41
-8997.74
-9040.39
-9067.97
-9065.33
-9002.37
-8812.23
-8326.13
-7058.15
-7089.38
-8419.35
-8966
-9214.33
-9332.24
-9385.74
-9404.14
-9401.92
-9386.87
-9363.48
-9334.48
-9301.61
-9266.03
-9228.53
-9189.7
-9150.01
-9109.85
-9069.55
-9029.45
-8989.9
-8951.24
-8913.83
-8878.06
-8844.33
-8813.06
-8784.69
-8759.64
-8738.37
-8721.31
-8708.87
-8701.46
-8699.43
-8703.09
-8712.67
-8728.34
-8750.14
-8777.97
-8811.57
-8850.42
-8893.69
-8940.07
-8987.56
-9033.05
-9071.59
-9094.81
-9087.58
-9019.86
-8824.82
-8333.73
-7060.68
-7090.2
-8421.83
-8970.17
-9220.24
-9339.94
-9395.31
-9415.67
-9415.48
-9402.54
-9381.34
-9354.6
-9324.05
-9290.84
-9255.77
-9219.41
-9182.22
-9144.56
-9106.77
-9069.17
-9032.08
-8995.82
-8960.75
-8927.21
-8895.59
-8866.28
-8839.69
-8816.22
-8796.3
-8780.32
-8768.69
-8761.77
-8759.89
-8763.34
-8772.35
-8787.04
-8807.47
-8833.53
-8864.95
-8901.22
-8941.51
-8984.54
-9028.33
-9069.8
-9104.02
-9122.67
-9110.66
-9037.99
-8837.86
-8341.59
-7063.31
-7090.97
-8424.15
-8974.08
-9225.82
-9347.29
-9404.52
-9426.84
-9428.72
-9417.95
-9399.01
-9374.62
-9346.5
-9315.78
-9283.25
-9249.48
-9214.91
-9179.88
-9144.73
-9109.75
-9075.24
-9041.51
-9008.88
-8977.69
-8948.28
-8921.02
-8896.3
-8874.49
-8855.97
-8841.13
-8830.34
-8823.92
-8822.2
-8825.43
-8833.82
-8847.5
-8866.49
-8890.68
-8919.81
-8953.38
-8990.56
-9030.1
-9070.03
-9107.33
-9137.09
-9151.04
-9134.12
-9056.38
-8851.08
-8349.54
-7065.97
-7091.61
-8426.1
-8977.41
-9230.64
-9353.73
-9412.73
-9436.97
-9440.91
-9432.34
-9415.7
-9393.72
-9368.11
-9339.97
-9310.09
-9279.01
-9247.16
-9214.89
-9182.48
-9150.23
-9118.41
-9087.31
-9057.23
-9028.48
-9001.37
-8976.25
-8953.47
-8933.38
-8916.33
-8902.67
-8892.73
-8886.84
-8885.27
-8888.27
-8896.02
-8908.63
-8926.12
-8948.37
-8975.12
-9005.88
-9039.85
-9075.78
-9111.76
-9144.78
-9170
-9179.17
-9157.32
-9074.52
-8864.07
-8357.36
-7068.57
-7092.01
-8427.34
-8979.62
-9233.99
-9358.43
-9419
-9445.03
-9450.96
-9444.55
-9430.24
-9410.71
-9387.66
-9362.18
-9335.02
-9306.73
-9277.7
-9248.26
-9218.7
-9189.27
-9160.24
-9131.87
-9104.42
-9078.19
-9053.46
-9030.56
-9009.78
-8991.46
-8975.92
-8963.48
-8954.43
-8949.08
-8947.67
-8950.42
-8957.49
-8969
-8984.93
-9005.18
-9029.48
-9057.35
-9088.02
-9120.28
-9152.23
-9180.93
-9201.59
-9206.03
-9179.33
-9091.62
-8876.27
-8364.66
-7071
-7091.98
-8427.33
-8979.84
-9234.75
-9360.06
-9421.86
-9449.43
-9457.2
-9452.87
-9440.85
-9423.78
-9403.32
-9380.54
-9356.18
-9330.74
-9304.61
-9278.1
-9251.46
-9224.94
-9198.78
-9173.21
-9148.47
-9124.84
-9102.56
-9081.92
-9063.21
-9046.71
-9032.72
-9021.52
-9013.39
-9008.58
-9007.32
-9009.81
-9016.2
-9026.56
-9040.89
-9059.08
-9080.88
-9105.81
-9133.13
-9161.66
-9189.57
-9213.98
-9230.16
-9230.03
-9198.74
-9106.52
-8886.76
-8370.88
-7073.06
-7091.2
-8425.13
-8976.61
-9231.02
-9356.43
-9418.88
-9447.61
-9456.96
-9454.56
-9444.75
-9430.11
-9412.25
-9392.21
-9370.69
-9348.16
-9325
-9301.47
-9277.83
-9254.29
-9231.06
-9208.36
-9186.4
-9165.42
-9145.65
-9127.33
-9110.73
-9096.09
-9083.68
-9073.75
-9066.55
-9062.29
-9061.19
-9063.41
-9069.08
-9078.27
-9090.97
-9107.07
-9126.31
-9148.27
-9172.21
-9197.02
-9220.94
-9241.15
-9253.05
-9248.67
-9213.29
-9117.24
-8894.01
-8375.04
-7074.41
-7089.06
-8419.01
-8967.28
-9219.49
-9343.74
-9405.97
-9435.28
-9445.83
-9445.12
-9437.38
-9425.11
-9409.83
-9392.54
-9373.89
-9354.32
-9334.16
-9313.68
-9293.09
-9272.59
-9252.36
-9232.58
-9213.46
-9195.18
-9177.96
-9162.01
-9147.55
-9134.81
-9124.01
-9115.37
-9109.1
-9105.4
-9104.45
-9106.4
-9111.34
-9119.34
-9130.38
-9144.35
-9161.02
-9179.98
-9200.55
-9221.68
-9241.7
-9257.91
-9265.87
-9257.77
-9219.11
-9120.43
-8895.36
-8375.39
-7074.44
-7084.36
-8405.6
-8946.84
-9194.01
-9315.13
-9375.82
-9404.84
-9416.06
-9416.72
-9410.88
-9400.86
-9388.13
-9373.58
-9357.81
-9341.22
-9324.12
-9306.73
-9289.24
-9271.82
-9254.63
-9237.83
-9221.57
-9206.05
-9191.42
-9177.87
-9165.59
-9154.77
-9145.6
-9138.26
-9132.94
-9129.81
-9129.01
-9130.67
-9134.87
-9141.65
-9151.01
-9162.84
-9176.93
-9192.9
-9210.13
-9227.66
-9243.94
-9256.45
-9260.95
-9249.94
-9209.27
-9109.87
-8885.75
-8368.55
-7071.94
-7074.45
-8377.74
-8904.95
-9142.32
-9257.22
-9314.46
-9342.03
-9353.21
-9354.84
-9350.64
-9342.76
-9332.51
-9320.67
-9307.79
-9294.21
-9280.19
-9265.92
-9251.57
-9237.27
-9223.15
-9209.36
-9196.02
-9183.27
-9171.26
-9160.14
-9150.07
-9141.19
-9133.66
-9127.65
-9123.29
-9120.72
-9120.07
-9121.43
-9124.88
-9130.44
-9138.11
-9147.79
-9159.29
-9172.28
-9186.24
-9200.28
-9213.04
-9222.23
-9223.94
-9211.16
-9170.35
-9073.27
-8854.82
-8347.34
-7064.26
-7052.75
-8318.55
-8818.51
-9038
-9141.98
-9193.08
-9217.67
-9227.95
-9230.04
-9227.21
-9221.32
-9213.46
-9204.32
-9194.32
-9183.75
-9172.83
-9161.71
-9150.52
-9139.37
-9128.37
-9117.61
-9107.21
-9097.27
-9087.9
-9079.23
-9071.38
-9064.46
-9058.59
-9053.9
-9050.51
-9048.51
-9048
-9049.07
-9051.76
-9056.09
-9062.06
-9069.58
-9078.5
-9088.56
-9099.3
-9110
-9119.5
-9125.84
-9125.61
-9112.55
-9074.26
-8984.16
-8779.43
-8294.84
-7044.81
-7000.13
-8183.47
-8630.34
-8818.37
-8904.53
-8945.95
-8965.72
-8974.12
-8976.14
-8974.4
-8970.33
-8964.79
-8958.29
-8951.16
-8943.62
-8935.81
-8927.86
-8919.85
-8911.87
-8904
-8896.3
-8888.85
-8881.74
-8875.04
-8868.84
-8863.22
-8858.26
-8854.07
-8850.72
-8848.29
-8846.86
-8846.5
-8847.26
-8849.18
-8852.29
-8856.55
-8861.92
-8868.28
-8875.42
-8883.02
-8890.53
-8897.05
-8901.06
-8899.85
-8888.33
-8856.07
-8779.85
-8602.38
-8166.51
-6994.45
-6850.69
-7840.22
-8183.43
-8318.4
-8377.41
-8404.98
-8417.96
-8423.51
-8424.97
-8424.05
-8421.68
-8418.39
-8414.5
-8410.23
-8405.71
-8401.02
-8396.24
-8391.43
-8386.64
-8381.91
-8377.28
-8372.81
-8368.54
-8364.51
-8360.79
-8357.41
-8354.44
-8351.92
-8349.9
-8348.45
-8347.59
-8347.37
-8347.83
-8348.99
-8350.85
-8353.4
-8356.62
-8360.43
-8364.71
-8369.23
-8373.68
-8377.46
-8379.63
-8378.4
-8370.37
-8348.31
-8295.27
-8166.64
-7830.03
-6847.28
-6334
-6850.69
-7000.11
-7052.7
-7074.33
-7084.14
-7088.69
-7090.64
-7091.17
-7090.89
-7090.11
-7089.02
-7087.73
-7086.3
-7084.8
-7083.23
-7081.64
-7080.04
-7078.44
-7076.86
-7075.32
-7073.83
-7072.4
-7071.06
-7069.81
-7068.69
-7067.7
-7066.86
-7066.18
-7065.7
-7065.41
-7065.34
-7065.49
-7065.88
-7066.5
-7067.35
-7068.42
-7069.69
-7071.11
-7072.62
-7074.09
-7075.33
-7076
-7075.5
-7072.59
-7064.62
-7044.98
-6994.51
-6847.29
-6332.86
-1401.89
-2230.25
-2524.02
-2646.6
-2704.73
-2734.94
-2751.61
-2761.1
-2766.52
-2769.5
-2770.97
-2771.47
-2771.33
-2770.76
-2769.91
-2768.86
-2767.69
-2766.43
-2765.13
-2763.82
-2762.51
-2761.22
-2759.99
-2758.81
-2757.72
-2756.72
-2755.84
-2755.08
-2754.46
-2753.99
-2753.68
-2753.54
-2753.56
-2753.73
-2754.04
-2754.46
-2754.93
-2755.36
-2755.62
-2755.49
-2754.63
-2752.49
-2748.14
-2739.92
-2724.72
-2696.13
-2639.76
-2519.06
-2227.25
-1400.89
-2230.26
-3940.25
-4652.07
-4977.09
-5138.78
-5224.95
-5273.15
-5300.8
-5316.65
-5325.38
-5329.67
-5331.09
-5330.63
-5328.91
-5326.33
-5323.18
-5319.66
-5315.89
-5311.99
-5308.05
-5304.12
-5300.28
-5296.57
-5293.05
-5289.77
-5286.78
-5284.13
-5281.85
-5279.99
-5278.59
-5277.66
-5277.23
-5277.29
-5277.82
-5278.77
-5280.03
-5281.45
-5282.76
-5283.57
-5283.24
-5280.79
-5274.59
-5261.95
-5238.12
-5194.31
-5113.01
-4956.61
-4637.2
-3931.24
-2227.24
-2524.03
-4652.1
-5611.87
-6077.25
-6318.61
-6450.83
-6526.09
-6569.74
-6594.9
-6608.78
-6615.55
-6617.7
-6616.8
-6613.85
-6609.52
-6604.25
-6598.36
-6592.08
-6585.59
-6579.01
-6572.47
-6566.07
-6559.9
-6554.04
-6548.58
-6543.61
-6539.19
-6535.4
-6532.31
-6529.97
-6528.43
-6527.71
-6527.82
-6528.71
-6530.3
-6532.44
-6534.84
-6537.11
-6538.58
-6538.25
-6534.54
-6524.88
-6505.06
-6467.78
-6399.82
-6275.71
-6043.15
-5587.12
-4637.09
-2519
-2646.65
-4977.22
-6077.38
-6633.07
-6930.88
-7098.08
-7194.91
-7251.69
-7284.61
-7302.78
-7311.53
-7314.12
-7312.61
-7308.34
-7302.19
-7294.76
-7286.5
-7277.7
-7268.61
-7259.41
-7250.27
-7241.32
-7232.69
-7224.51
-7216.88
-7209.92
-7203.75
-7198.45
-7194.13
-7190.86
-7188.72
-7187.72
-7187.88
-7189.15
-7191.41
-7194.45
-7197.91
-7201.23
-7203.54
-7203.5
-7199.01
-7186.75
-7161.29
-7113.41
-7026.78
-6870.92
-6585.41
-6042.78
-4956.24
-2639.61
-2704.83
-5139.07
-6318.98
-6931.18
-7267.24
-7459.64
-7572.69
-7639.63
-7678.63
-7700.08
-7710.23
-7712.91
-7710.58
-7704.86
-7696.82
-7687.21
-7676.55
-7665.23
-7653.55
-7641.74
-7630
-7618.52
-7607.45
-7596.95
-7587.17
-7578.25
-7570.32
-7563.53
-7557.99
-7553.8
-7551.05
-7549.79
-7550.02
-7551.68
-7554.64
-7558.63
-7563.22
-7567.71
-7571.07
-7571.66
-7566.98
-7553.1
-7523.68
-7468.15
-7368.19
-7190.34
-6870.05
-6274.6
-5112.15
-2695.81
-2735.14
-5225.51
-6451.62
-7098.91
-7460.23
-7670.09
-7794.79
-7869.17
-7912.6
-7936.35
-7947.29
-7949.69
-7946.33
-7939.03
-7929.02
-7917.18
-7904.12
-7890.28
-7876.01
-7861.61
-7847.3
-7833.3
-7819.81
-7807.01
-7795.09
-7784.22
-7774.57
-7766.29
-7759.54
-7754.45
-7751.1
-7749.58
-7749.89
-7751.96
-7755.65
-7760.64
-7766.43
-7772.24
-7776.86
-7778.44
-7774.17
-7759.64
-7727.88
-7667.41
-7558.65
-7366.51
-7024.42
-6397.54
-5192.71
-2724.14
-2751.93
-5274.08
-6527.48
-7196.52
-7574.21
-7795.8
-7928.5
-8008.02
-8054.43
-8079.58
-8090.74
-8092.51
-8087.89
-8078.88
-8066.85
-8052.74
-8037.26
-8020.9
-8004.07
-7987.09
-7970.23
-7953.74
-7937.86
-7922.79
-7908.76
-7895.96
-7884.59
-7874.85
-7866.91
-7860.92
-7857
-7855.22
-7855.62
-7858.13
-7862.57
-7868.6
-7875.68
-7882.93
-7889.03
-7891.95
-7888.64
-7874.36
-7841.68
-7778.54
-7664.6
-7463.88
-7108.82
-6463.82
-5235.47
-2738.99
-2761.6
-5302.23
-6571.95
-7254.41
-7642.48
-7871.68
-8009.61
-8092.42
-8140.61
-8166.37
-8177.25
-8178.07
-8171.99
-8161.17
-8147.04
-8130.65
-8112.75
-8093.89
-8074.52
-8054.99
-8035.61
-8016.67
-7998.42
-7981.12
-7965
-7950.3
-7937.25
-7926.06
-7916.94
-7910.07
-7905.58
-7903.57
-7904.07
-7907.03
-7912.24
-7919.36
-7927.8
-7936.61
-7944.38
-7948.95
-7947.08
-7933.8
-7901.38
-7837.38
-7721
-7515.77
-7153.69
-6498.83
-5257.89
-2746.74
-2767.24
-5318.74
-6598.18
-7288.78
-7683.26
-7917.15
-8058.26
-8142.95
-8191.96
-8217.68
-8227.86
-8227.46
-8219.78
-8207.04
-8190.78
-8172.09
-8151.78
-8130.44
-8108.56
-8086.52
-8064.67
-8043.31
-8022.74
-8003.24
-7985.07
-7968.51
-7953.8
-7941.2
-7930.92
-7923.19
-7918.14
-7915.91
-7916.53
-7919.94
-7925.95
-7934.19
-7944.04
-7954.51
-7964.11
-7970.58
-7970.55
-7958.89
-7927.66
-7864.16
-7747.35
-7540.46
-7175.28
-6515.78
-5268.77
-2750.49
-2770.5
-5328.3
-6613.41
-7308.78
-7706.99
-7943.56
-8086.36
-8171.88
-8220.96
-8246.15
-8255.3
-8253.47
-8244.05
-8229.33
-8210.91
-8189.94
-8167.24
-8143.46
-8119.11
-8094.61
-8070.33
-8046.62
-8023.78
-8002.12
-7981.95
-7963.56
-7947.24
-7933.25
-7921.85
-7913.26
-7907.68
-7905.24
-7905.97
-7909.85
-7916.67
-7926.06
-7937.36
-7949.56
-7961.1
-7969.67
-7971.79
-7962.22
-7932.86
-7870.88
-7755.05
-7548.46
-7182.77
-6521.94
-5272.82
-2751.91
-2772.3
-5333.59
-6621.82
-7319.79
-7719.95
-7957.81
-8101.25
-8186.82
-8235.44
-8259.72
-8267.59
-8264.19
-8252.94
-8236.21
-8215.63
-8192.38
-8167.33
-8141.16
-8114.4
-8087.5
-8060.86
-8034.85
-8009.8
-7986.05
-7963.93
-7943.76
-7925.86
-7910.52
-7898.02
-7888.62
-7882.52
-7879.87
-7880.74
-7885.08
-7892.72
-7903.26
-7916.03
-7930
-7943.57
-7954.37
-7958.85
-7951.7
-7924.71
-7864.95
-7751.08
-7546.1
-7181.6
-6521.51
-5272.75
-2751.92
-2773.2
-5336.2
-6625.94
-7325.07
-7726.01
-7964.22
-8107.58
-8192.66
-8240.43
-8263.54
-8269.96
-8264.87
-8251.76
-8233.01
-8210.29
-8184.81
-8157.47
-8128.97
-8099.87
-8070.65
-8041.72
-8013.47
-7986.28
-7960.51
-7936.51
-7914.62
-7895.19
-7878.55
-7864.99
-7854.79
-7848.19
-7845.34
-7846.34
-7851.16
-7859.6
-7871.28
-7885.53
-7901.29
-7916.92
-7930.03
-7937.01
-7932.49
-7908.2
-7851.13
-7739.87
-7537.34
-7175.1
-6517.07
-5270.18
-2751.07
-2773.52
-5337.12
-6627.33
-7326.72
-7727.66
-7965.59
-8108.38
-8192.62
-8239.27
-8261.04
-8265.9
-8259.09
-8244.1
-8223.35
-8198.53
-8170.88
-8141.33
-8110.58
-8079.22
-8047.76
-8016.63
-7986.24
-7956.99
-7929.27
-7903.46
-7879.92
-7859.02
-7841.12
-7826.54
-7815.58
-7808.49
-7805.47
-7806.6
-7811.87
-7821.11
-7833.92
-7849.63
-7867.15
-7884.85
-7900.29
-7909.84
-7908.07
-7886.67
-7832.56
-7724.29
-7524.74
-7165.42
-6510.23
-5266.11
-2749.72
-2773.49
-5336.99
-6627
-7326.08
-7726.53
-7963.78
-8105.69
-8188.84
-8234.23
-8254.56
-8257.82
-8249.28
-8232.44
-8209.73
-8182.89
-8153.15
-8121.46
-8088.56
-8055.05
-8021.44
-7988.21
-7955.78
-7924.57
-7894.99
-7867.44
-7842.32
-7820.03
-7800.92
-7785.37
-7773.69
-7766.14
-7762.94
-7764.21
-7769.92
-7779.93
-7793.83
-7810.96
-7830.21
-7849.95
-7867.71
-7879.82
-7880.83
-7862.39
-7811.38
-7706.3
-7510
-7153.97
-6502.06
-5261.22
-2748.09
-2773.24
-5336.21
-6625.64
-7324.04
-7723.7
-7960.02
-8100.87
-8182.82
-8226.87
-8245.71
-8247.39
-8237.14
-8218.5
-8193.92
-8165.13
-8133.4
-8099.69
-8064.74
-8029.19
-7993.56
-7958.34
-7923.97
-7890.91
-7859.57
-7830.39
-7803.78
-7780.16
-7759.92
-7743.44
-7731.07
-7723.09
-7719.73
-7721.12
-7727.26
-7738.01
-7752.96
-7771.45
-7792.38
-7814.08
-7834.08
-7848.71
-7852.46
-7836.96
-7789.07
-7687.24
-7494.3
-7141.7
-6493.27
-5255.93
-2746.33
-2772.86
-5335.05
-6623.67
-7321.2
-7719.9
-7955.18
-8094.88
-8175.58
-8218.26
-8235.65
-8235.77
-8223.88
-8203.53
-8177.17
-8146.55
-8112.95
-8077.33
-8040.47
-8003.01
-7965.48
-7928.39
-7892.22
-7857.42
-7824.44
-7793.72
-7765.72
-7740.85
-7719.55
-7702.21
-7689.19
-7680.81
-7677.3
-7678.81
-7685.36
-7696.79
-7712.74
-7732.52