/*--------------------------------*- C++ -*----------------------------------*\
| =========                 |                                                 |
| \\      /  F ield         | OpenFOAM: The Open Source CFD Toolbox           |
|  \\    /   O peration     | Version:  5.x                                   |
|   \\  /    A nd           | Web:      www.OpenFOAM.org                      |
|    \\/     M anipulation  |                                                 |
\*---------------------------------------------------------------------------*/
FoamFile
{
    version     2.0;
    format      ascii;
    class       volScalarField;
    location    "0.8";
    object      gradTy;
}
// * * * * * * * * * * * * * * * * * * * * * * * * * * * * * * * * * * * * * //

dimensions      [0 -1 0 1 0 0 0];

internalField   nonuniform List<scalar> 
25000
(
5260.99
10756.8
14307.5
16948
19093.5
20939.8
22592.2
24113.3
25543.2
26909.1
28229.6
29517.9
30783
32030.7
33264.2
34484.7
35691.1
36880.8
38049.6
39191.7
40299.9
41366.1
42380.8
43333.7
44213.4
45008.3
45706
46293.8
46759.1
47089
47271.3
47294
47145.9
46816.5
46296.4
45577.1
44651.3
43512.8
42156.1
40576.5
38769.1
36728.3
34445.5
31907.1
29088.8
25946.5
22395.3
18262.1
13155.2
6064.74
2537.65
6497.35
9532.45
11966.2
14014.2
15807.9
17428.6
18929
20344.5
21699.7
23011.9
24293.5
25553
26795.9
28025.3
29242.1
30445.2
31631.9
32797.8
33937.3
35043.2
36107.3
37120
38071.1
38949.3
39742.9
40439.5
41026.5
41491.3
41821.1
42003.7
42027
41880
41552.3
41034.4
40317.9
39395.8
38261.8
36910.9
35338.4
33540.2
31511.2
29244.3
26728.2
23943.5
20855.9
17404.6
13480.5
8891.77
3340.07
1614.05
4542.57
7059.9
9226.34
11127
12833.1
14398.1
15860.6
17248.9
18583.6
19879.7
21148.3
22396.9
23630.4
24851.6
26061
27257.4
28437.9
29598.2
30732.5
31833.6
32893.2
33902
34849.4
35724.5
36515.4
37209.9
37795.3
38259.1
38588.6
38771.6
38796.3
38651.5
38326.9
37813.4
37102.7
36187.8
35062.9
33723.2
32164.8
30384.2
28378
26141.1
23666.4
20941.4
17945.7
14646.4
10994.6
6928.93
2413.78
1204.51
3512.73
5629.06
7545.59
9288.46
10891.6
12386.3
13798.8
15150
16456.1
17729.4
18979.1
20211.7
21431.4
22640.2
23838.5
25024.8
26196.1
27347.9
28474.3
29568
30620.9
31623.4
32565.4
33435.6
34222.3
34913.4
35496.3
35958.4
36287.4
36471
36497.5
36355.9
36036.2
35529.1
34826.9
33922.6
32811.1
31487.8
29949.8
28194.7
26220.6
24025.4
21605.9
18957.2
16071.3
12937.2
9543.15
5886.56
2000.04
979.976
2897.95
4719.31
6425.34
8020.08
9517.91
10936.2
12291.6
13598.7
14869.8
16114.5
17340.2
18552.2
19753.7
20946.3
22129.9
23302.7
24461.5
25601.6
26717.2
27800.9
28844.5
29838.5
30772.8
31636.2
32417.1
33103.4
33682.7
34142.5
34470.6
34654.7
34683.5
34546.1
34232.6
33734.1
33042.9
32152.7
31058.5
29756.6
28244.8
26521.8
24587.6
22442.6
20087.8
17524.1
14752.9
11777.2
8604.54
5254.28
1769.64
837.405
2491.7
4093.76
5627.65
7090.6
8487.94
9828.84
11123.7
12382.4
13613.8
14825.2
16022.4
17209.4
18388.8
19561.3
20726.4
21882.2
23025.1
24150.5
25252.1
26322.9
27354.4
28337.4
29261.7
30116.2
30889.4
31569.3
32143.8
32600.4
32926.9
33111.6
33143
33010.5
32704.6
32216.5
31538.9
30665.8
29592.8
28316.8
26836.3
25151.3
23263.3
21175
18890.6
16415.5
13757.4
10927
7940.85
4824.9
1619.32
737.328
2200.89
3634.69
5027.43
6375.14
7679.35
8944.89
10178.1
11385.8
12574.1
13748.5
14913.3
16071.4
17224.6
18373.3
19516.3
20651.4
21774.9
22882
23966.5
25021.1
26037.7
27006.8
27918.4
28761.6
29525
30196.8
30764.9
31217.1
31541.5
31726.3
31760.6
31633.8
31336.7
30860.8
30199.2
29346.3
28298
27052
25607.6
23965.6
22129.1
20102.4
17892
15506.7
12957.6
10259.8
7433.15
4504.6
1509.36
661.779
1979.01
3278.81
4553.72
5800.43
7019.13
8212.43
9384.36
10539.5
11682.2
12816.4
13945.3
15070.9
16194.3
17315.2
18432.2
19542.9
20643.3
21728.5
22792.3
23827.4
24825.7
25777.8
26673.9
27503.1
28254.4
28915.9
29475.9
29922.4
30243.6
30428.2
30465.4
30344.9
30057.7
29595.8
28952.5
28122.6
27102.5
25890.5
24486.4
22892.2
21111.5
19150.5
17017
14721.8
12278.1
9702.74
7016.77
4246.03
1421.51
601.421
1800.61
2989.59
4163.74
5320.79
6460.66
7584.98
8696.4
9798.08
10893.2
11984.5
13074.3
14163.8
15253.6
16342.9
17430.2
18512.5
19585.9
20645.3
21684.5
22696.4
23672.8
24604.5
25481.8
26294.2
27030.6
27679.5
28229.4
28668.6
28985.7
29169.4
29209.3
29095.5
28819.3
28373
27750.2
26946.1
25957.7
24783.4
23423.9
21881.7
20161.3
18269.6
16215.7
14011.2
11670.5
9211.09
6653.76
4022.87
1346.16
550.896
1650.64
2744.65
3830.29
4906.29
5972.75
7030.86
8082.55
9130.12
10175.8
11221.8
12269.3
13319.3
14371.8
15425.7
16479
17528.8
18571
19600.5
20611.1
21595.8
22546.4
23454.1
24309.1
25101.3
25819.9
26453.6
26991.2
27421.4
27732.9
27914.9
27957.4
27850.7
27586.3
27157.1
26557
25781.6
24828
23695.4
22384.6
20898.8
19242.9
17424.4
15453
13340.9
11102.6
8755.71
6320.3
3819.22
1277.64
506.892
1519.65
2529.54
3535.32
4536.56
5533.65
6527.64
7520.1
8512.77
9507.37
10505.3
11507.7
12514.7
13526
14540.4
15555.7
16568.7
17575.4
18570.6
19548.2
20501.4
21422
22301.6
23130.6
23899.2
24596.6
25212.3
25735.2
26154.2
26458.7
26638.1
26682.6
26583.2
26331.7
25921.1
25345.8
24601.8
23686.5
22599.3
21341.5
19916.5
18329.6
16588.6
14703.4
12686.2
10551.6
8316.65
6000.58
3624.79
1212.38
467.242
1401.36
2334.51
3266.41
4197.27
5127.77
6058.98
6992.26
7929.03
8870.64
9818.13
10772.1
11732.6
12699
13669.7
14642.6
15614.3
16580.9
17537.2
18477.3
19394.4
20280.7
21127.9
21926.9
22667.9
23340.8
23935.3
24440.7
24846.5
25142.2
25317.9
25364
25272
25034.1
24643.6
24095.3
23385.4
22511.7
21473.9
20273.5
18914
17401
15742.2
13947.5
12029
10001
7879.79
5683.64
3432.56
1147.95
430.465
1291.47
2152.76
3014.74
3878.07
4743.67
5612.69
6486.38
7365.97
8252.53
9146.85
10049.3
10959.6
11877
12799.8
13725.8
14651.7
15573.4
16486.1
17383.8
18260.1
19107.5
19917.8
20682.4
21391.9
22036.6
22606.6
23091.7
23481.8
23767
23937.6
23984.8
23900.3
23676.6
23307.7
22788.5
22115.6
21287
20302.7
19164.1
17875.1
16441.1
14869.8
13170.8
11355.9
9438.73
7434.89
5361.62
3237.6
1082.66
395.518
1186.91
1979.43
2773.91
3571.35
4372.86
5179.62
5992.85
6813.64
7642.9
8481.22
9328.78
10185.2
11049.6
11920.2
12794.7
13670
14542
15406.1
16256.6
17087.2
17890.8
18659.6
19385.4
20059.2
20671.9
21213.9
21675.7
22047.6
22320.2
22484.6
22532.1
22454.9
22246.3
21900.3
21412.4
20779.3
19999.4
19072.6
18000.7
16787.3
15437.8
13959.7
12362.2
10656.6
8855.76
6974.48
5028.88
3036.37
1015.32
361.647
1085.48
1810.97
2539.23
3271.48
4008.94
4752.84
5504.33
6264.45
7033.96
7813.34
8602.63
9401.39
10208.6
11022.6
11841.1
12660.9
13478.3
14288.8
15087
15866.9
16621.9
17344.5
18026.9
18660.8
19237.5
19748.1
20183.4
20534.5
20792.6
20949.2
20996.2
20926.5
20733.5
20411.9
19957.3
19366.9
18639.2
17774.3
16773.9
15641.5
14382.3
13003.4
11513.7
9923.74
8245.66
6493.21
4681.4
2826.37
945.062
328.31
985.579
1644.8
2307.27
2974.31
3647.2
4327.17
5015.35
5712.68
6419.85
7137.24
7864.81
8602.08
9348.02
10101
10858.8
11618.4
12376.4
13128.3
13869.2
14593.4
15294.8
15966.4
16601
17190.7
17727.4
18202.9
18608.7
18936.4
19177.9
19325.2
19371
19308.5
19131.8
18835.9
18416.8
17872
17200.1
16401.2
15477.2
14431.2
13268.3
11995.1
10619.9
9152.39
7604.03
5987.44
4316.46
2605.91
871.326
295.116
886.043
1479.05
2075.52
2676.8
3284.17
3898.85
4521.89
5154.18
5796.33
6448.65
7111.07
7783.08
8463.67
9151.31
9843.87
10538.6
11232.2
11920.7
12599.3
13263.1
13906.1
14522
15104.2
15645.5
16138.3
16575.2
16948.3
17250
17472.8
17609.4
17653.1
17597.8
17437.9
17169
16787.5
16291.1
15678.5
14949.9
14107.1
13153.1
12092.4
10931.3
9677.38
8339.56
6928.26
5455.01
3932.44
2373.99
793.766
261.79
786.07
1312.44
1842.26
2376.86
2917.48
3465.27
4021.22
4586.14
5160.57
5744.79
6338.69
6941.77
7553.09
8171.21
8794.19
9419.51
10044.1
10664.4
11276.1
11874.6
12454.5
13010.3
13535.8
14024.5
14469.7
14864.5
15202
15475.2
15677.2
15801.8
15842.6
15794.2
15651.8
15411.1
15069.2
14623.7
14073.8
13419.7
12662.9
11806.1
10853.7
9811.08
8685.2
7484.19
6217.35
4895.07
3528.67
2130.19
712.24
228.155
685.133
1144.1
1606.35
2073.13
2545.6
3024.81
3511.68
4006.91
4511.02
5024.2
5546.35
6077.02
6615.34
7160.02
7709.28
8260.9
8812.14
9359.77
9900.06
10428.8
10941.4
11432.7
11897.4
12329.7
12723.7
13073.2
13372.2
13614.4
13793.9
13904.9
13942.1
13900.6
13776
13564.8
13264.2
12872.4
12388.4
11812.6
11146.3
10391.9
9553.31
8635.36
7644.15
6586.87
5471.75
4307.92
3105.34
1874.61
626.779
194.108
582.932
973.565
1367.18
1764.9
2167.76
2576.71
2992.54
3415.89
3847.18
4286.59
4734.02
5189.06
5650.95
6118.54
6590.31
7064.31
7538.16
8009.08
8473.82
8928.78
9369.92
9792.9
10193
10565.4
10904.8
11206.1
11463.9
11673
11828.1
11924.4
11957.2
11922.4
11816.2
11635.5
11378
11042.1
10627
10133.1
9561.45
8914.25
8194.76
7407.2
6556.82
5649.8
4693.22
3694.91
2663.42
1607.81
537.571
159.611
479.356
800.666
1124.55
1451.97
1783.82
2120.91
2463.9
2813.34
3169.56
3532.74
3902.76
4279.29
4661.67
5048.96
5439.87
5832.76
6225.65
6616.22
7001.78
7379.29
7745.43
8096.57
8428.81
8738.06
9020.06
9270.43
9484.77
9658.69
9787.91
9868.34
9896.14
9867.82
9780.33
9631.12
9418.23
9140.35
8796.9
8388.06
7914.83
7379.05
6783.4
6131.4
5427.41
4676.55
3884.69
3058.33
2204.52
1330.78
444.945
124.675
374.449
625.491
878.617
1134.6
1394.17
1657.97
1926.53
2200.28
2479.5
2764.3
3054.62
3350.17
3650.43
3954.66
4261.82
4570.63
4879.52
5186.65
5489.9
5786.89
6074.97
6351.3
6612.8
6856.25
7078.29
7275.49
7444.36
7581.46
7683.42
7747.03
7769.25
7747.35
7678.94
7562.01
7395.01
7176.94
6907.34
6586.35
6214.78
5794.06
5326.32
4814.33
4261.52
3671.92
3050.14
2401.28
1730.89
1044.87
349.348
89.3554
268.379
448.333
629.82
813.411
999.631
1188.95
1381.77
1578.38
1779.01
1983.72
2192.47
2405.05
2621.08
2840.02
3061.12
3283.46
3505.9
3727.11
3945.56
4159.52
4367.1
4566.23
4754.7
4930.19
5090.27
5232.46
5354.26
5453.19
5526.81
5572.81
5589.01
5573.45
5524.38
5440.37
5320.32
5163.49
4969.56
4738.65
4471.32
4168.62
3832.08
3463.71
3065.96
2641.76
2194.4
1727.58
1245.27
751.711
251.332
53.7389
161.408
269.646
378.821
489.281
601.348
715.307
831.4
949.813
1070.67
1194.02
1319.83
1447.97
1578.23
1710.25
1843.61
1977.73
2111.92
2245.39
2377.2
2506.32
2631.6
2751.79
2865.56
2971.49
3068.14
3154
3227.55
3287.31
3331.81
3359.63
3369.48
3360.17
3330.64
3280.04
3207.69
3113.16
2996.26
2857.04
2695.86
2513.35
2310.44
2088.33
1848.51
1592.75
1323.02
1041.57
750.776
453.208
151.529
17.935
53.8694
89.9954
126.437
163.31
200.725
238.775
277.543
317.091
357.461
398.668
440.703
483.521
527.048
571.173
615.744
660.573
705.431
750.047
794.112
837.279
879.162
919.345
957.382
992.802
1025.12
1053.82
1078.42
1098.4
1113.28
1122.59
1125.89
1122.79
1112.92
1096.02
1071.84
1040.25
1001.18
954.657
900.795
839.805
771.997
697.777
617.641
532.177
442.052
348.008
250.848
151.424
50.6281
-17.9329
-53.8628
-89.9841
-126.42
-163.288
-200.696
-238.739
-277.499
-317.039
-357.399
-398.596
-440.62
-483.427
-526.943
-571.056
-615.617
-660.436
-705.283
-749.891
-793.949
-837.109
-878.988
-919.168
-957.205
-992.627
-1024.95
-1053.66
-1078.27
-1098.26
-1113.16
-1122.48
-1125.8
-1122.71
-1112.87
-1095.99
-1071.84
-1040.27
-1001.22
-954.718
-900.873
-839.899
-772.102
-697.888
-617.754
-532.286
-442.152
-348.093
-250.912
-151.465
-50.6418
-53.7368
-161.401
-269.635
-378.805
-489.26
-601.321
-715.273
-831.357
-949.762
-1070.61
-1193.95
-1319.75
-1447.88
-1578.12
-1710.14
-1843.48
-1977.59
-2111.78
-2245.24
-2377.04
-2506.16
-2631.43
-2751.62
-2865.38
-2971.32
-3067.97
-3153.84
-3227.4
-3287.17
-3331.68
-3359.52
-3369.39
-3360.1
-3330.59
-3280.01
-3207.69
-3113.18
-2996.29
-2857.1
-2695.94
-2513.44
-2310.54
-2088.44
-1848.63
-1592.85
-1323.12
-1041.65
-750.839
-453.247
-151.542
-89.3535
-268.373
-448.323
-629.806
-813.391
-999.605
-1188.92
-1381.73
-1578.34
-1778.95
-1983.65
-2192.39
-2404.96
-2620.98
-2839.91
-3061
-3283.33
-3505.76
-3726.96
-3945.4
-4159.36
-4366.93
-4566.06
-4754.53
-4930.02
-5090.11
-5232.31
-5354.12
-5453.05
-5526.69
-5572.71
-5588.93
-5573.38
-5524.33
-5440.34
-5320.31
-5163.51
-4969.6
-4738.7
-4471.39
-4168.71
-3832.18
-3463.81
-3066.07
-2641.86
-2194.5
-1727.66
-1245.33
-751.749
-251.345
-124.673
-374.444
-625.482
-878.604
-1134.59
-1394.15
-1657.94
-1926.49
-2200.23
-2479.45
-2764.24
-3054.55
-3350.09
-3650.34
-3954.55
-4261.71
-4570.51
-4879.39
-5186.51
-5489.76
-5786.73
-6074.81
-6351.14
-6612.64
-6856.09
-7078.14
-7275.34
-7444.22
-7581.33
-7683.31
-7746.92
-7769.16
-7747.29
-7678.89
-7561.98
-7395.01
-7176.96
-6907.37
-6586.4
-6214.84
-5794.14
-5326.41
-4814.43
-4261.62
-3672.02
-3050.23
-2401.36
-1730.95
-1044.9
-349.361
-159.609
-479.352
-800.658
-1124.54
-1451.96
-1783.8
-2120.88
-2463.87
-2813.3
-3169.52
-3532.68
-3902.7
-4279.22
-4661.59
-5048.87
-5439.76
-5832.65
-6225.53
-6616.09
-7001.64
-7379.15
-7745.29
-8096.42
-8428.66
-8737.91
-9019.91
-9270.29
-9484.64
-9658.57
-9787.8
-9868.24
-9896.06
-9867.76
-9780.28
-9631.09
-9418.22
-9140.36
-8796.93
-8388.11
-7914.9
-7379.13
-6783.48
-6131.49
-5427.5
-4676.64
-3884.77
-3058.4
-2204.57
-1330.81
-444.956
-194.108
-582.929
-973.559
-1367.17
-1764.89
-2167.75
-2576.69
-2992.52
-3415.86
-3847.14
-4286.54
-4733.97
-5189
-5650.87
-6118.46
-6590.22
-7064.21
-7538.06
-8008.96
-8473.7
-8928.65
-9369.79
-9792.76
-10192.9
-10565.3
-10904.7
-11206
-11463.8
-11672.9
-11828
-11924.3
-11957.2
-11922.3
-11816.1
-11635.4
-11378
-11042.1
-10627.1
-10133.2
-9561.5
-8914.32
-8194.84
-7407.28
-6556.9
-5649.89
-4693.29
-3694.97
-2663.46
-1607.84
-537.582
-228.155
-685.131
-1144.1
-1606.35
-2073.12
-2545.59
-3024.8
-3511.66
-4006.89
-4510.98
-5024.16
-5546.31
-6076.97
-6615.28
-7159.95
-7709.2
-8260.82
-8812.05
-9359.67
-9899.95
-10428.7
-10941.3
-11432.6
-11897.3
-12329.6
-12723.6
-13073.1
-13372.1
-13614.3
-13793.8
-13904.8
-13942
-13900.5
-13776
-13564.8
-13264.2
-12872.4
-12388.5
-11812.6
-11146.3
-10392
-9553.38
-8635.43
-7644.23
-6586.95
-5471.81
-4307.98
-3105.39
-1874.63
-626.788
-261.79
-786.069
-1312.44
-1842.26
-2376.85
-2917.47
-3465.26
-4021.21
-4586.12
-5160.55
-5744.76
-6338.65
-6941.72
-7553.04
-8171.16
-8794.12
-9419.43
-10044
-10664.3
-11276
-11874.5
-12454.4
-13010.2
-13535.7
-14024.4
-14469.6
-14864.4
-15201.9
-15475.1
-15677.2
-15801.7
-15842.5
-15794.2
-15651.7
-15411.1
-15069.1
-14623.7
-14073.9
-13419.7
-12662.9
-11806.2
-10853.7
-9811.14
-8685.27
-7484.25
-6217.4
-4895.12
-3528.71
-2130.21
-712.248
-295.116
-886.044
-1479.05
-2075.52
-2676.8
-3284.17
-3898.84
-4521.88
-5154.17
-5796.31
-6448.63
-7111.04
-7783.05
-8463.64
-9151.27
-9843.82
-10538.6
-11232.1
-11920.6
-12599.3
-13263
-13906
-14522
-15104.1
-15645.4
-16138.2
-16575.1
-16948.2
-17249.9
-17472.7
-17609.4
-17653.1
-17597.7
-17437.9
-17169
-16787.5
-16291.1
-15678.5
-14949.9
-14107.1
-13153.1
-12092.5
-10931.4
-9677.43
-8339.61
-6928.3
-5455.05
-3932.47
-2374.01
-793.773
-328.311
-985.581
-1644.8
-2307.27
-2974.31
-3647.2
-4327.17
-5015.35
-5712.67
-6419.84
-7137.23
-7864.8
-8602.07
-9348
-10101
-10858.7
-11618.4
-12376.3
-13128.2
-13869.1
-14593.4
-15294.8
-15966.4
-16600.9
-17190.6
-17727.4
-18202.8
-18608.6
-18936.3
-19177.8
-19325.1
-19370.9
-19308.4
-19131.7
-18835.8
-18416.8
-17872
-17200.1
-16401.2
-15477.2
-14431.2
-13268.3
-11995.1
-10619.9
-9152.42
-7604.06
-5987.46
-4316.48
-2605.93
-871.331
-361.648
-1085.49
-1810.97
-2539.24
-3271.49
-4008.95
-4752.85
-5504.34
-6264.45
-7033.96
-7813.34
-8602.63
-9401.38
-10208.6
-11022.6
-11841
-12660.9
-13478.3
-14288.8
-15087
-15866.9
-16621.8
-17344.4
-18026.9
-18660.8
-19237.5
-19748
-20183.4
-20534.5
-20792.6
-20949.1
-20996.2
-20926.4
-20733.5
-20411.8
-19957.3
-19366.9
-18639.2
-17774.3
-16773.9
-15641.5
-14382.3
-13003.4
-11513.7
-9923.76
-8245.68
-6493.23
-4681.42
-2826.38
-945.065
-395.519
-1186.92
-1979.43
-2773.92
-3571.36
-4372.87
-5179.63
-5992.86
-6813.65
-7642.91
-8481.23
-9328.79
-10185.2
-11049.6
-11920.2
-12794.7
-13670
-14542
-15406.1
-16256.6
-17087.1
-17890.7
-18659.6
-19385.3
-20059.2
-20671.9
-21213.9
-21675.7
-22047.6
-22320.2
-22484.5
-22532
-22454.9
-22246.3
-21900.3
-21412.4
-20779.3
-19999.4
-19072.6
-18000.7
-16787.3
-15437.8
-13959.7
-12362.2
-10656.6
-8855.77
-6974.49
-5028.89
-3036.38
-1015.32
-430.467
-1291.47
-2152.77
-3014.75
-3878.08
-4743.69
-5612.71
-6486.4
-7365.98
-8252.55
-9146.87
-10049.3
-10959.6
-11877
-12799.9
-13725.8
-14651.7
-15573.4
-16486.1
-17383.8
-18260.1
-19107.5
-19917.8
-20682.4
-21391.9
-22036.6
-22606.6
-23091.7
-23481.8
-23766.9
-23937.6
-23984.8
-23900.2
-23676.6
-23307.7
-22788.5
-22115.6
-21287
-20302.6
-19164.1
-17875.1
-16441.1
-14869.7
-13170.8
-11355.9
-9438.73
-7434.89
-5361.62
-3237.6
-1082.66
-467.244
-1401.37
-2334.52
-3266.42
-4197.29
-5127.79
-6059
-6992.28
-7929.06
-8870.67
-9818.16
-10772.1
-11732.6
-12699
-13669.7
-14642.6
-15614.4
-16580.9
-17537.2
-18477.3
-19394.4
-20280.7
-21127.9
-21926.9
-22667.9
-23340.8
-23935.3
-24440.7
-24846.5
-25142.2
-25317.8
-25364
-25272
-25034
-24643.6
-24095.3
-23385.4
-22511.7
-21473.9
-20273.5
-18914
-17400.9
-15742.1
-13947.5
-12029
-10001
-7879.78
-5683.63
-3432.56
-1147.95
-506.894
-1519.65
-2529.55
-3535.34
-4536.58
-5533.67
-6527.67
-7520.13
-8512.8
-9507.4
-10505.4
-11507.7
-12514.7
-13526.1
-14540.5
-15555.7
-16568.8
-17575.4
-18570.6
-19548.3
-20501.4
-21422.1
-22301.6
-23130.7
-23899.2
-24596.7
-25212.3
-25735.2
-26154.2
-26458.7
-26638.1
-26682.6
-26583.2
-26331.7
-25921.1
-25345.8
-24601.7
-23686.4
-22599.2
-21341.5
-19916.4
-18329.6
-16588.6
-14703.3
-12686.1
-10551.6
-8316.63
-6000.57
-3624.78
-1212.37
-550.898
-1650.65
-2744.66
-3830.3
-4906.31
-5972.77
-7030.88
-8082.58
-9130.15
-10175.9
-11221.8
-12269.4
-13319.4
-14371.8
-15425.7
-16479.1
-17528.9
-18571.1
-19600.6
-20611.2
-21595.8
-22546.4
-23454.1
-24309.2
-25101.4
-25819.9
-26453.7
-26991.3
-27421.4
-27732.9
-27915
-27957.4
-27850.7
-27586.3
-27157.1
-26557
-25781.6
-24828
-23695.4
-22384.6
-20898.7
-19242.9
-17424.4
-15453
-13340.8
-11102.6
-8755.68
-6320.28
-3819.21
-1277.64
-601.423
-1800.61
-2989.6
-4163.75
-5320.8
-6460.68
-7585
-8696.43
-9798.11
-10893.2
-11984.6
-13074.3
-14163.9
-15253.6
-16343
-17430.2
-18512.5
-19585.9
-20645.3
-21684.6
-22696.5
-23672.8
-24604.6
-25481.9
-26294.3
-27030.6
-27679.6
-28229.5
-28668.7
-28985.7
-29169.5
-29209.3
-29095.6
-28819.3
-28373
-27750.2
-26946.1
-25957.7
-24783.4
-23423.9
-21881.7
-20161.3
-18269.6
-16215.6
-14011.1
-11670.5
-9211.06
-6653.73
-4022.86
-1346.15
-661.781
-1979.01
-3278.82
-4553.73
-5800.45
-7019.14
-8212.45
-9384.39
-10539.5
-11682.2
-12816.5
-13945.4
-15071
-16194.3
-17315.2
-18432.3
-19543
-20643.4
-21728.6
-22792.4
-23827.5
-24825.7
-25777.9
-26674
-27503.2
-28254.4
-28916
-29475.9
-29922.4
-30243.7
-30428.3
-30465.4
-30344.9
-30057.7
-29595.8
-28952.4
-28122.5
-27102.5
-25890.5
-24486.4
-22892.1
-21111.5
-19150.4
-17017
-14721.7
-12278
-9702.69
-7016.73
-4246.01
-1421.51
-737.329
-2200.89
-3634.7
-5027.44
-6375.15
-7679.37
-8944.91
-10178.1
-11385.8
-12574.1
-13748.6
-14913.3
-16071.5
-17224.7
-18373.3
-19516.4
-20651.5
-21775
-22882.1
-23966.6
-25021.3
-26037.8
-27006.9
-27918.5
-28761.7
-29525.1
-30196.9
-30765
-31217.2
-31541.5
-31726.4
-31760.6
-31633.8
-31336.7
-30860.8
-30199.2
-29346.3
-28298
-27052
-25607.5
-23965.6
-22129
-20102.3
-17892
-15506.6
-12957.6
-10259.7
-7433.11
-4504.57
-1509.35
-837.405
-2491.7
-4093.76
-5627.65
-7090.61
-8487.95
-9828.86
-11123.7
-12382.4
-13613.8
-14825.3
-16022.5
-17209.5
-18388.8
-19561.4
-20726.5
-21882.3
-23025.2
-24150.6
-25252.2
-26323
-27354.6
-28337.6
-29261.8
-30116.3
-30889.5
-31569.5
-32143.9
-32600.5
-32927
-33111.6
-33143
-33010.6
-32704.6
-32216.5
-31538.9
-30665.8
-29592.8
-28316.7
-26836.2
-25151.2
-23263.2
-21175
-18890.5
-16415.4
-13757.3
-10926.9
-7940.8
-4824.87
-1619.31
-979.975
-2897.95
-4719.31
-6425.34
-8020.08
-9517.91
-10936.2
-12291.6
-13598.8
-14869.9
-16114.6
-17340.3
-18552.2
-19753.8
-20946.4
-22130
-23302.8
-24461.6
-25601.8
-26717.3
-27801
-28844.6
-29838.7
-30772.9
-31636.4
-32417.3
-33103.6
-33682.9
-34142.7
-34470.7
-34654.9
-34683.6
-34546.2
-34232.7
-33734.1
-33042.9
-32152.7
-31058.4
-29756.6
-28244.7
-26521.8
-24587.5
-22442.5
-20087.7
-17524
-14752.9
-11777.1
-8604.48
-5254.25
-1769.63
-1204.51
-3512.72
-5629.06
-7545.59
-9288.46
-10891.6
-12386.3
-13798.9
-15150.1
-16456.1
-17729.4
-18979.1
-20211.7
-21431.4
-22640.3
-23838.6
-25025
-26196.3
-27348
-28474.4
-29568.2
-30621
-31623.6
-32565.5
-33435.7
-34222.5
-34913.5
-35496.4
-35958.6
-36287.6
-36471.1
-36497.6
-36356
-36036.2
-35529.2
-34826.9
-33922.7
-32811
-31487.8
-29949.8
-28194.7
-26220.5
-24025.3
-21605.8
-18957.1
-16071.3
-12937.2
-9543.09
-5886.52
-2000.03
-1614.05
-4542.57
-7059.89
-9226.34
-11127
-12833.1
-14398.1
-15860.6
-17248.9
-18583.6
-19879.8
-21148.3
-22396.9
-23630.5
-24851.7
-26061.1
-27257.5
-28438
-29598.4
-30732.7
-31833.8
-32893.4
-33902.2
-34849.6
-35724.7
-36515.6
-37210.1
-37795.5
-38259.3
-38588.8
-38771.8
-38796.4
-38651.6
-38327
-37813.5
-37102.7
-36187.8
-35062.9
-33723.1
-32164.7
-30384.2
-28377.9
-26141.1
-23666.3
-20941.3
-17945.6
-14646.4
-10994.6
-6928.89
-2413.76
-2537.65
-6497.35
-9532.45
-11966.2
-14014.2
-15807.9
-17428.6
-18929
-20344.5
-21699.7
-23011.9
-24293.5
-25553.1
-26796
-28025.4
-29242.2
-30445.3
-31632
-32798
-33937.5
-35043.4
-36107.5
-37120.2
-38071.3
-38949.5
-39743.1
-40439.7
-41026.7
-41491.5
-41821.3
-42003.8
-42027.2
-41880.2
-41552.4
-41034.4
-40318
-39395.8
-38261.8
-36910.9
-35338.4
-33540.1
-31511.1
-29244.2
-26728.1
-23943.4
-20855.8
-17404.5
-13480.4
-8891.73
-3340.06
-5260.99
-10756.8
-14307.5
-16948
-19093.5
-20939.8
-22592.2
-24113.3
-25543.3
-26909.1
-28229.6
-29517.9
-30783
-32030.7
-33264.3
-34484.8
-35691.2
-36881
-38049.8
-39191.8
-40300.1
-41366.3
-42381
-43333.9
-44213.7
-45008.6
-45706.2
-46294.1
-46759.3
-47089.2
-47271.5
-47294.2
-47146
-46816.6
-46296.5
-45577.2
-44651.3
-43512.8
-42156.1
-40576.4
-38769.1
-36728.2
-34445.4
-31907
-29088.7
-25946.4
-22395.2
-18262
-13155.2
-6064.73
2544.81
6517.99
9565.4
12010.4
14068.8
15872.2
17502.1
19011.2
20434.9
21797.8
23117.5
24406.3
25672.8
26922.4
28158.3
29381.4
30590.6
31783.1
32954.8
34099.8
35210.9
36279.9
37297.2
38252.6
39134.7
39931.7
40631.2
41220.7
41687.2
42018.1
42201
42223.9
42075.6
41745.7
41224.6
40504.1
39576.8
38436.6
37078.3
35497.4
33689.5
31649.8
29371
26841.9
24043
20940.1
17472.3
13530.5
8922.75
3350.71
1863.91
5145.11
7873.67
10164.7
12142
13898.7
15499.4
16988.9
18398.6
19751.1
21062.7
22344.9
23605.9
24850.8
26082.6
27301.9
28507.8
29697.3
30866.2
32008.5
33117.3
34184.1
35199.4
36153
37033.6
37829.3
38527.8
39116.4
39582.5
39913.3
40096.4
40120
39972.8
39644.5
39125.7
38408
37484.3
36348.6
34996
33422.2
31623.3
29595.1
27331.7
24823.8
22056.1
19002
15617.6
11832.2
7545.91
2668.48
1407.16
4050.64
6403.67
8479.12
10329.1
12006.6
13555.3
15008.7
16392.2
17724.8
19020.5
20289.9
21540
22775.6
23999.1
25211.1
26410.2
27593.6
28756.8
29894
30998
32060.3
33071.7
34021.7
34899.1
35692.1
36388.4
36975.4
37440.5
37771
37954.5
37979.4
37834.5
37509.4
36994.9
36282.9
35366.4
34239.8
32898.3
31338.4
29556.9
27550.9
25316.6
22848.3
20136.5
17166
13913.7
10348.9
6443.36
2209.02
1126.58
3307.93
5337.59
7199.04
8907.94
10490.4
11972.9
13378.4
14726
16030.6
17303.9
18554.5
19788.8
21010.5
22221.8
23422.7
24611.8
25785.9
26940.6
28069.8
29166.4
30222
31227.2
32171.6
33044.1
33832.9
34525.8
35110.3
35573.8
35903.7
36087.9
36114.6
35972.8
35652.5
35144.5
34441
33535.2
32421.8
31096.7
29556.9
27800.5
25826.1
23632.2
21217.1
18577.6
15708.9
12605.1
9262.12
5688.1
1924.24
945.433
2802.22
4576.85
6250.08
7822.91
9306.66
10716.2
12066.7
13371.3
14641.6
15886.7
17113.6
18327.3
19531
20726.1
21912.3
23087.9
24249.5
25392.5
26510.9
27597.4
28643.7
29640.4
30577.1
31442.8
32225.8
32913.9
33494.8
33955.9
34284.9
34469.6
34498.6
34361
34046.9
33547.5
32855
31963.1
30867
29563.1
28049.3
26324.7
24389.5
22244.8
19892.3
17334.2
14573.7
11616.2
8472.45
5164.83
1737.2
820.289
2442.97
4019.16
5533.62
6982.84
8371
9706.15
10997.7
12255
13486.3
14698.5
15897.1
17086
18267.6
19442.6
20610.4
21768.9
22914.6
24042.8
25147.3
26220.8
27255.1
28240.7
29167.3
30024.1
30799.4
31481.2
32057.1
32515
32842.5
33027.7
33059.3
32926.7
32620.2
32131.1
31452.2
30577.4
29502.4
28224.3
26741.6
25054.6
23165
21075.9
18792.1
16319.7
13667.4
10847.1
7876.52
4782.4
1604.29
728.278
2174.77
3594.03
4975.36
6314.74
7613.29
8875.32
10106.7
11313.8
12502.6
13678.1
14844.5
16004.7
17160.2
18311.3
19457
20594.8
21721.1
22831
23918.3
24975.7
25994.9
26966.5
27880.6
28726
29491.5
30165
30734.6
31188.1
31513.4
31698.8
31733.2
31606.3
31308.6
30831.7
30168.8
29314.2
28263.9
27015.6
25568.8
23924.5
22085.8
20057.5
17846.3
15461.5
12914.8
10221.7
7402.63
4484.62
1502.37
656.874
1964.76
3256.43
4524.83
5766.74
6982.21
8173.67
9344.88
10500.1
11643.7
12779.4
13910
15037.8
16163.5
17286.9
18406.6
19519.9
20623.1
21711.1
22777.6
23815.4
24816.3
25770.9
26669.4
27500.8
28254.1
28917.4
29478.9
29926.6
30248.8
30433.9
30471.2
30350.6
30062.8
29599.9
28955.2
28123.6
27101.5
25887.1
24480.5
22883.6
21100.4
19137
17001.8
14705.4
12261.6
9687.58
7004.36
4237.83
1418.64
598.81
1793.01
2977.63
4148.3
5302.85
6441.19
7564.84
8676.35
9778.74
10875.1
11968
13059.7
14151.5
15243.6
16335.4
17425.3
18510.2
19586.3
20648.4
21690.4
22704.9
23683.8
24618
25497.7
26312.2
27050.5
27701.2
28252.6
28693
29011
29195.3
29235.3
29121.4
28844.6
28397.3
27773.1
26967.3
25976.8
24800.1
23438
21892.9
20169.6
18275.1
16218.6
14011.9
11669.5
9209.12
6651.57
4021.2
1345.53
549.619
1646.94
2738.86
3822.92
4897.93
5963.99
7022.26
8074.63
9123.3
10170.5
11218.2
12267.8
13320
14374.8
15431.2
16487.1
17539.5
18584.4
19616.5
20629.8
21617
22570.1
23480.2
24337.5
25131.8
25852.3
26487.7
27026.8
27458.1
27770.5
27953.1
27995.7
27888.8
27623.9
27193.7
26592.2
25815.1
24859.4
23724.3
22410.9
20922
19263.1
17441.4
15466.9
13351.7
11110.8
8761.48
6324.05
3821.3
1278.3
506.415
1518.29
2527.5
3532.9
4534.12
5531.56
6526.28
7519.81
8513.87
9510.12
10510
11514.4
12523.6
13537.3
14554.1
15571.9
16587.5
17596.7
18594.5
19574.7
20530.3
21453.4
22335.3
23166.5
23937.1
24636.4
25253.8
25778
26198.2
26503.5
26683.5
26728.2
26628.6
26376.5
25965
25388.4
24642.6
23725.2
22635.6
21375
19947
18356.9
16612.5
14723.8
12703.2
10565.2
8326.98
6007.8
3629.05
1213.78
467.25
1401.43
2334.76
3267.03
4198.49
5129.82
6062.13
6996.74
7935.07
8878.43
9827.85
10783.9
11746.6
12715.2
13688.4
14663.6
15637.9
16606.9
17565.7
18508.3
19427.8
20316.4
21165.9
21966.9
22709.9
23384.7
23980.8
24487.5
24894.4
25190.9
25367.1
25413.4
25321.2
25082.7
24691.3
24141.7
23430.2
22554.5
21514.2
20311.1
18948.6
17432.3
15770
13971.7
12049.5
10017.7
7892.72
5692.82
3438.05
1149.77
430.766
1292.4
2154.39
3017.2
3881.5
4748.25
5618.58
6493.75
7374.98
8263.34
9159.59
10064.1
10976.5
11896.1
12821.3
13749.6
14677.9
15602
16517
17417.1
18295.7
19145.3
19957.8
20724.4
21435.8
22082.3
22653.8
23140.2
23531.3
23817.2
23988.4
24035.7
23951
23726.8
23357
22836.6
22162
21331.5
20344.8
19203.6
17911.6
16474.3
14899.5
13196.8
11378.1
9456.99
7449.14
5371.81
3243.72
1084.7
395.987
1188.34
1981.86
2777.43
3576.06
4378.87
5187.06
6001.84
6824.3
7655.35
8495.56
9345.1
10203.6
11070.1
11942.9
12819.7
13697.2
14571.5
15437.8
16290.5
17123.3
17929
18699.9
19427.6
20103.2
20717.6
21261.1
21724.1
22097
22370.3
22535.1
22582.8
22505.5
22296.4
21949.5
21460.4
20825.8
20044
19114.9
18040.5
16824.2
15471.5
13989.9
12388.8
10679.3
8874.57
6989.21
5039.45
3042.73
1017.44
362.205
1087.17
1813.81
2543.3
3276.84
4015.67
4761.03
5514.08
6275.83
7047.08
7828.28
8619.47
9420.19
10229.4
11045.5
11866
12688
13507.6
14320.2
15120.5
15902.5
16659.4
17383.9
18068.2
18703.8
19282
19793.9
20230.4
20582.5
20841.3
20998.3
21045.5
20975.6
20782.1
20459.7
20004
19412.2
18682.7
17815.6
16812.7
15677.5
14415.3
13033.2
11539.9
9946.24
8264.28
6507.82
4691.9
2832.7
947.176
328.902
987.362
1647.8
2311.52
2979.87
3654.13
4335.54
5025.23
5724.14
6432.96
7152.07
7881.43
8620.54
9368.36
10123.3
10883
11644.6
12404.5
13158.4
13901.3
14627.5
15330.7
16004.1
16640.4
17231.6
17769.8
18246.5
18653.4
18982
19224.1
19371.9
19417.8
19355.2
19178
18881.4
18461.3
17915.1
17241.5
16440.6
15514.2
14465.7
13299.9
12023.6
10645
9174
7621.94
6001.51
4326.59
2612.02
873.366
295.704
887.814
1482.03
2079.73
2682.27
3290.96
3907.01
4531.48
5165.24
5808.93
6462.85
7126.92
7800.62
8482.96
9172.37
9866.73
10563.3
11258.7
11949
12629.4
13294.9
13939.6
14557.2
15141
15683.7
16177.8
16615.9
16990
17292.5
17515.9
17652.9
17696.7
17641.3
17481
17211.4
16829
16331.2
15717.1
14986.7
14141.7
13185.3
12122
10958
9700.95
8359.84
6945.07
5468.23
3941.95
2379.73
795.685
262.349
787.751
1315.25
1846.24
2382.02
2923.87
3472.93
4030.19
4596.47
5172.31
5757.98
6353.37
6957.99
7570.88
8190.61
8815.21
9442.17
10068.4
10690.3
11303.7
11903.7
12485.2
13042.5
13569.4
14059.4
14505.8
14901.6
15240
15513.9
15716.5
15841.4
15882.4
15833.9
15691
15449.8
15107
14660.4
14109.1
13453.3
12694.5
11835.6
10880.7
9835.49
8706.78
7502.76
6232.75
4907.19
3537.4
2135.46
714
228.666
686.669
1146.67
1609.98
2077.83
2551.41
3031.76
3519.8
4016.26
4521.61
5036.08
5559.57
6091.6
6631.31
7177.4
7728.11
8281.18
8833.87
9382.94
9924.66
10454.8
10968.8
11461.4
11927.3
12360.8
12755.8
13106.3
13406
13648.9
13828.9
13940.2
13977.5
13935.9
13811
13599.2
13297.9
12905
12419.8
11842.5
11174.5
10418.2
9577.44
8657.15
7663.42
6603.46
5485.52
4318.75
3113.15
1879.32
628.353
194.558
584.284
975.827
1370.37
1769.03
2172.86
2582.8
2999.65
3424.06
3856.43
4296.96
4745.53
5201.75
5664.83
6133.65
6606.66
7081.9
7557.01
8029.17
8495.15
8951.31
9393.63
9817.73
10218.9
10592.3
10932.6
11234.7
11493.2
11702.8
11858.4
11955
11987.9
11952.9
11846.4
11665.3
11407.1
11070.3
10654.2
10159
9585.88
8937.02
8215.67
7426.08
6573.52
5664.19
4705.16
3704.3
2670.18
1611.89
538.937
159.989
480.495
802.57
1127.23
1455.45
1788.11
2126.02
2469.87
2820.18
3177.32
3541.42
3912.4
4289.9
4673.28
5061.58
5453.51
5847.44
6241.38
6632.98
7019.56
7398.08
7765.19
8117.26
8450.39
8760.47
9043.21
9294.25
9509.17
9683.55
9813.12
9893.77
9921.64
9893.26
9805.54
9655.94
9442.5
9163.9
8819.55
8409.65
7935.2
7398.03
6800.83
6147.15
5441.34
4688.55
3894.65
3066.17
2210.17
1334.19
446.085
124.976
375.354
627.004
880.746
1137.36
1397.57
1662.02
1931.26