/*--------------------------------*- C++ -*----------------------------------*\
| =========                 |                                                 |
| \\      /  F ield         | OpenFOAM: The Open Source CFD Toolbox           |
|  \\    /   O peration     | Version:  5.x                                   |
|   \\  /    A nd           | Web:      www.OpenFOAM.org                      |
|    \\/     M anipulation  |                                                 |
\*---------------------------------------------------------------------------*/
FoamFile
{
    version     2.0;
    format      ascii;
    class       volScalarField;
    location    "0.8";
    object      T;
}
// * * * * * * * * * * * * * * * * * * * * * * * * * * * * * * * * * * * * * //

dimensions      [0 0 0 1 0 0 0];

internalField   nonuniform List<scalar> 
25000
(
300.733
301.372
301.75
302.021
302.239
302.425
302.591
302.743
302.887
303.024
303.156
303.285
303.412
303.536
303.66
303.782
303.903
304.022
304.139
304.253
304.364
304.471
304.572
304.667
304.755
304.835
304.905
304.964
305.01
305.043
305.061
305.064
305.049
305.016
304.964
304.892
304.799
304.685
304.549
304.391
304.21
304.006
303.777
303.523
303.24
302.924
302.566
302.145
301.612
300.813
301.371
302.931
303.973
304.758
305.399
305.951
306.446
306.902
307.331
307.74
308.136
308.522
308.902
309.276
309.646
310.012
310.374
310.731
311.081
311.424
311.756
312.076
312.38
312.666
312.93
313.168
313.378
313.554
313.694
313.793
313.847
313.854
313.81
313.711
313.555
313.339
313.062
312.72
312.313
311.84
311.298
310.686
310.001
309.24
308.396
307.454
306.392
305.16
303.651
301.612
301.748
303.971
305.563
306.807
307.844
308.748
309.562
310.315
311.025
311.703
312.361
313.002
313.633
314.255
314.87
315.479
316.081
316.675
317.258
317.828
318.381
318.913
319.42
319.896
320.335
320.732
321.081
321.374
321.607
321.772
321.863
321.874
321.801
321.637
321.377
321.019
320.557
319.99
319.314
318.526
317.626
316.61
315.475
314.214
312.817
311.266
309.528
307.537
305.168
302.15
302.017
304.748
306.797
308.449
309.85
311.085
312.205
313.246
314.23
315.173
316.088
316.982
317.86
318.728
319.586
320.436
321.277
322.106
322.92
323.717
324.49
325.233
325.941
326.606
327.22
327.775
328.262
328.672
328.997
329.228
329.356
329.373
329.27
329.042
328.68
328.18
327.537
326.745
325.802
324.705
323.451
322.037
320.458
318.707
316.772
314.633
312.251
309.557
306.422
302.578
302.23
305.376
307.814
309.826
311.56
313.104
314.517
315.835
317.085
318.286
319.452
320.594
321.717
322.827
323.926
325.014
326.091
327.153
328.197
329.218
330.208
331.162
332.069
332.922
333.709
334.421
335.046
335.573
335.99
336.286
336.451
336.473
336.343
336.051
335.589
334.95
334.126
333.114
331.909
330.506
328.904
327.098
325.085
322.856
320.4
317.695
314.703
311.355
307.523
302.95
302.409
305.907
308.685
311.019
313.058
314.892
316.58
318.163
319.67
321.121
322.534
323.918
325.281
326.629
327.965
329.288
330.598
331.89
333.161
334.404
335.61
336.771
337.876
338.915
339.874
340.741
341.503
342.145
342.654
343.016
343.218
343.246
343.089
342.735
342.174
341.397
340.398
339.169
337.705
336.003
334.06
331.872
329.435
326.742
323.782
320.534
316.962
312.999
308.524
303.286
302.565
306.372
309.452
312.077
314.396
316.5
318.448
320.284
322.038
323.731
325.382
327.003
328.601
330.183
331.751
333.305
334.844
336.363
337.857
339.318
340.738
342.104
343.404
344.627
345.756
346.777
347.674
348.43
349.03
349.457
349.696
349.731
349.547
349.133
348.476
347.565
346.393
344.951
343.235
341.241
338.965
336.404
333.555
330.413
326.966
323.198
319.073
314.531
309.453
303.597
302.704
306.788
310.139
313.03
315.608
317.963
320.158
322.234
324.224
326.151
328.033
329.883
331.71
333.519
335.314
337.095
338.858
340.6
342.314
343.99
345.618
347.186
348.679
350.082
351.379
352.551
353.582
354.451
355.141
355.633
355.908
355.95
355.742
355.269
354.518
353.477
352.136
350.488
348.526
346.246
343.646
340.723
337.476
333.899
329.985
325.717
321.066
315.973
310.326
303.89
302.83
307.164
310.763
313.898
316.716
319.307
321.733
324.038
326.253
328.404
330.509
332.581
334.63
336.661
338.677
340.678
342.661
344.62
346.549
348.435
350.269
352.034
353.716
355.296
356.757
358.079
359.24
360.221
360.999
361.555
361.867
361.917
361.685
361.156
360.314
359.146
357.642
355.792
353.592
351.035
348.121
344.848
341.215
337.219
332.855
328.109
322.955
317.338
311.151
304.166
302.944
307.508
311.335
314.695
317.736
320.548
323.192
325.713
328.143
330.508
332.827
335.113
337.375
339.621
341.851
344.067
346.263
348.435
350.572
352.664
354.697
356.655
358.521
360.275
361.897
363.364
364.654
365.743
366.608
367.227
367.576
367.634
367.38
366.797
365.867
364.577
362.915
360.871
358.439
355.616
352.399
348.788
344.783
340.385
335.589
330.385
324.75
318.634
311.935
304.428
303.05
307.824
311.861
315.43
318.679
321.696
324.546
327.271
329.905
332.475
334.998
337.489
339.957
342.409
344.847
347.269
349.672
352.049
354.389
356.68
358.907
361.052
363.097
365.02
366.798
368.406
369.821
371.017
371.968
372.648
373.033
373.1
372.826
372.191
371.177
369.769
367.954
365.724
363.07
359.989
356.481
352.546
348.185
343.401
338.191
332.55
326.457
319.866
312.679
304.677
303.147
308.116
312.347
316.109
319.551
322.761
325.803
328.721
331.548
334.311
337.029
339.716
342.381
345.031
347.668
350.289
352.891
355.465
358
360.483
362.897
365.224
367.442
369.527
371.456
373.202
374.738
376.037
377.07
377.811
378.231
378.307
378.014
377.33
376.236
374.715
372.755
370.345
367.479
364.153
360.365
356.12
351.419
346.266
340.663
334.606
328.077
321.034
313.385
304.913
303.237
308.385
312.795
316.737
320.357
323.747
326.969
330.068
333.077
336.023
338.925
341.798
344.65
347.489
350.315
353.126
355.918
358.681
361.404
364.071
366.665
369.165
371.548
373.791
375.865
377.743
379.396
380.793
381.906
382.705
383.16
383.245
382.934
382.204
381.034
379.407
377.309
374.728
371.659
368.099
364.047
359.506
354.482
348.98
343.003
336.551
329.609
322.139
314.052
305.136
303.319
308.632
313.208
317.315
321.102
324.659
328.048
331.315
334.495
337.612
340.688
343.735
346.765
349.782
352.788
355.779
358.751
361.694
364.595
367.437
370.201
372.867
375.409
377.8
380.013
382.017
383.781
385.274
386.463
387.317
387.806
387.901
387.574
386.8
385.559
383.831
381.602
378.86
375.6
371.818
367.516
362.696
357.367
351.535
345.206
338.381
331.051
323.179
314.68
305.346
303.395
308.86
313.587
317.846
321.786
325.497
329.041
332.465
335.802
339.08
342.318
345.529
348.724
351.909
355.083
358.244
361.386
364.498
367.566
370.573
373.499
376.321
379.012
381.545
383.888
386.012
387.881
389.464
390.725
391.633
392.154
392.258
391.916
391.103
389.794
387.972
385.62
382.728
379.288
375.299
370.762
365.681
360.066
353.924
347.266
340.093
332.399
324.151
315.267
305.542
303.464
309.067
313.932
318.331
322.411
326.262
329.949
333.517
337
340.426
343.813
347.177
350.526
353.865
357.197
360.516
363.816
367.085
370.31
373.472
376.548
379.516
382.347
385.011
387.477
389.712
391.68
393.347
394.677
395.634
396.186
396.299
395.944
395.094
393.724
391.814
389.348
386.316
382.71
378.528
373.772
368.449
362.568
356.14
349.175
341.68
333.648
325.052
315.81
305.724
303.526
309.254
314.245
318.769
322.976
326.955
330.772
334.471
338.088
341.648
345.172
348.675
352.165
355.648
359.123
362.588
366.033
369.449
372.817
376.121
379.337
382.439
385.399
388.185
390.765
393.103
395.162
396.907
398.3
399.304
399.884
400.006
399.64
398.755
397.329
395.339
392.769
389.608
385.849
381.49
376.534
370.988
364.864
358.172
350.927
343.135
334.794
325.877
316.309
305.891
303.582
309.421
314.524
319.161
323.481
327.576
331.509
335.326
339.062
342.744
346.393
350.021
353.639
357.251
360.857
364.453
368.031
371.578
375.078
378.511
381.854
385.078
388.155
391.053
393.736
396.167
398.31
400.126
401.577
402.623
403.23
403.361
402.984
402.069
400.591
398.529
395.865
392.587
388.69
384.171
379.033
373.286
366.941
360.011
352.511
344.451
335.83
326.624
316.76
306.042
303.631
309.568
314.77
319.506
323.926
328.122
332.158
336.079
339.922
343.712
347.47
351.21
354.942
358.669
362.392
366.105
369.801
373.466
377.083
380.632
384.087
387.421
390.603
393.599
396.375
398.89
401.108
402.988
404.49
405.575
406.205
406.343
405.957
405.016
403.493
401.366
398.619
395.238
391.217
386.555
381.256
375.33
368.788
361.646
353.92
345.621
336.752
327.289
317.161
306.176
303.673
309.695
314.981
319.804
324.31
328.594
332.719
336.73
340.665
344.549
348.402
352.24
356.07
359.897
363.721
367.537
371.336
375.103
378.822
382.471
386.025
389.455
392.728
395.812
398.667
401.257
403.54
405.475
407.022
408.141
408.792
408.937
408.544
407.579
406.017
403.835
401.014
397.543
393.415
388.629
383.19
377.107
370.395
363.069
355.146
346.64
337.553
327.867
317.51
306.292
303.709
309.801
315.159
320.053
324.632
328.99
333.189
337.276
341.288
345.251
349.185
353.104
357.018
360.929
364.839
368.742
372.627
376.481
380.287
384.021
387.658
391.169
394.52
397.677
400.601
403.252
405.591
407.573
409.159
410.306
410.975
411.126
410.726
409.743
408.147
405.918
403.035
399.488
395.27
390.38
384.822
378.608
371.751
364.269
356.18
347.499
338.23
328.354
317.804
306.391
303.737
309.887
315.302
320.254
324.891
329.308
333.567
337.716
341.79
345.817
349.815
353.801
357.781
361.762
365.741
369.713
373.669
377.593
381.469
385.272
388.977
392.553
395.967
399.183
402.163
404.865
407.248
409.269
410.886
412.056
412.739
412.896
412.491
411.491
409.87
407.602
404.67
401.061
396.77
391.795
386.142
379.821
372.847
365.24
357.016
348.193
338.776
328.748
318.042
306.47
303.759
309.951
315.409
320.405
325.086
329.547
333.852
338.047
342.168
346.243
350.291
354.326
358.358
362.39
366.421
370.446
374.455
378.433
382.361
386.217
389.973
393.599
397.061
400.322
403.343
406.084
408.501
410.551
412.192
413.379
414.073
414.234
413.825
412.814
411.172
408.876
405.906
402.251
397.905
392.866
387.14
380.738
373.677
365.974
357.649
348.719
339.19
329.047
318.222
306.53
303.773
309.994
315.481
320.506
325.217
329.707
334.042
338.269
342.422
346.528
350.609
354.678
358.743
362.81
366.877
370.937
374.982
378.996
382.96
386.85
390.641
394.3
397.794
401.085
404.135
406.901
409.341
411.411
413.067
414.267
414.968
415.132
414.72
413.701
412.046
409.73
406.735
403.049
398.665
393.584
387.809
381.354
374.233
366.466
358.073
349.071
339.467
329.247
318.343
306.571
303.78
310.016
315.517
320.556
325.282
329.788
334.138
338.38
342.548
346.671
350.768
354.854
358.937
363.021
367.105
371.184
375.246
379.278
383.26
387.168
390.975
394.651
398.161
401.468
404.532
407.311
409.762
411.842
413.507
414.712
415.417
415.582
415.169
414.146
412.484
410.159
407.151
403.45
399.047
393.944
388.145
381.662
374.512
366.713
358.286
349.248
339.607
329.347
318.403
306.591
303.78
310.016
315.517
320.556
325.282
329.788
334.138
338.38
342.548
346.671
350.768
354.854
358.937
363.021
367.105
371.184
375.246
379.278
383.26
387.168
390.975
394.651
398.161
401.468
404.532
407.311
409.762
411.842
413.507
414.712
415.417
415.582
415.169
414.146
412.484
410.159
407.151
403.45
399.047
393.944
388.145
381.662
374.512
366.713
358.286
349.248
339.607
329.347
318.403
306.591
303.773
309.994
315.481
320.506
325.217
329.708
334.042
338.269
342.422
346.528
350.609
354.678
358.743
362.81
366.877
370.937
374.982
378.996
382.96
386.85
390.641
394.3
397.794
401.085
404.135
406.901
409.341
411.411
413.067
414.267
414.968
415.132
414.72
413.701
412.046
409.73
406.735
403.049
398.665
393.584
387.809
381.354
374.233
366.466
358.073
349.071
339.467
329.247
318.343
306.571
303.759
309.951
315.409
320.405
325.086
329.547
333.852
338.047
342.168
346.243
350.291
354.326
358.358
362.39
366.421
370.446
374.455
378.433
382.362
386.217
389.973
393.599
397.061
400.322
403.343
406.084
408.501
410.551
412.192
413.38
414.073
414.234
413.825
412.814
411.172
408.876
405.906
402.251
397.905
392.865
387.14
380.738
373.677
365.974
357.649
348.719
339.19
329.047
318.222
306.53
303.737
309.887
315.302
320.254
324.891
329.308
333.567
337.716
341.79
345.817
349.815
353.801
357.781
361.762
365.741
369.713
373.669
377.594
381.469
385.272
388.977
392.553
395.967
399.183
402.163
404.865
407.248
409.269
410.886
412.056
412.739
412.896
412.491
411.492
409.87
407.602
404.67
401.061
396.77
391.795
386.142
379.821
372.847
365.24
357.016
348.193
338.776
328.748
318.042
306.47
303.709
309.801
315.159
320.053
324.632
328.99
333.189
337.277
341.288
345.251
349.185
353.104
357.018
360.93
364.839
368.742
372.627
376.482
380.287
384.021
387.658
391.169
394.52
397.677
400.601
403.253
405.591
407.574
409.159
410.306
410.975
411.126
410.726
409.743
408.147
405.918
403.035
399.488
395.27
390.38
384.822
378.608
371.751
364.269
356.18
347.499
338.229
328.354
317.804
306.391
303.673
309.695
314.981
319.804
324.311
328.594
332.719
336.73
340.665
344.549
348.402
352.24
356.07
359.897
363.721
367.537
371.336
375.103
378.822
382.471
386.025
389.455
392.729
395.812
398.668
401.257
403.54
405.475
407.023
408.141
408.792
408.938
408.544
407.579
406.017
403.835
401.014
397.543
393.415
388.629
383.19
377.107
370.395
363.069
355.146
346.639
337.553
327.867
317.51
306.292
303.631
309.568
314.77
319.506
323.926
328.122
332.158
336.079
339.922
343.712
347.47
351.211
354.942
358.669
362.392
366.106
369.801
373.466
377.083
380.632
384.087
387.421
390.603
393.6
396.375
398.891
401.108
402.988
404.49
405.575
406.205
406.344
405.957
405.016
403.493
401.366
398.619
395.237
391.217
386.555
381.256
375.33
368.788
361.646
353.92
345.621
336.751
327.289
317.161
306.176
303.582
309.421
314.524
319.161
323.481
327.576
331.509
335.326
339.062
342.744
346.393
350.021
353.639
357.251
360.857
364.454
368.031
371.579
375.079
378.512
381.854
385.078
388.156
391.053
393.736
396.168
398.311
400.127
401.577
402.624
403.23
403.361
402.984
402.069
400.591
398.529
395.865
392.587
388.69
384.17
379.033
373.286
366.941
360.011
352.511
344.451
335.83
326.624
316.76
306.042
303.526
309.254
314.245
318.769
322.976
326.956
330.772
334.471
338.088
341.648
345.172
348.675
352.165
355.648
359.123
362.588
366.034
369.449
372.818
376.121
379.337
382.439
385.399
388.185
390.765
393.103
395.163
396.907
398.3
399.304
399.884
400.007
399.64
398.755
397.329
395.339
392.769
389.608
385.849
381.49
376.534
370.988
364.864
358.172
350.926
343.134
334.793
325.877
316.309
305.891
303.464
309.067
313.932
318.331
322.411
326.262
329.949
333.517
337
340.426
343.813
347.177
350.526
353.866
357.197
360.516
363.816
367.086
370.31
373.472
376.549
379.516
382.347
385.011
387.478
389.712
391.681
393.347
394.677
395.635
396.186
396.3
395.945
395.094
393.724
391.814
389.348
386.316
382.71
378.528
373.772
368.449
362.568
356.14
349.175
341.679
333.648
325.051
315.81
305.724
303.395
308.86
313.587
317.846
321.786
325.497
329.041
332.465
335.803
339.08
342.318
345.529
348.725
351.909
355.083
358.244
361.386
364.498
367.566
370.574
373.5
376.321
379.012
381.545
383.889
386.012
387.881
389.464
390.725
391.633
392.154
392.258
391.916
391.103
389.794
387.972
385.62
382.728
379.288
375.299
370.761
365.681
360.065
353.924
347.265
340.093
332.398
324.151
315.266
305.542
303.319
308.632
313.208
317.315
321.102
324.659
328.048
331.315
334.495
337.612
340.688
343.736
346.765
349.782
352.788
355.78
358.752
361.694
364.595
367.437
370.202
372.867
375.409
377.801
380.013
382.017
383.781
385.274
386.463
387.318
387.807
387.901
387.574
386.8
385.559
383.831
381.602
378.86
375.6
371.818
367.515
362.696
357.367
351.534
345.206
338.381
331.05
323.179
314.68
305.346
303.237
308.385
312.795
316.737
320.357
323.747
326.969
330.068
333.077
336.023
338.925
341.798
344.65
347.489
350.315
353.127
355.918
358.681
361.404
364.071
366.665
369.165
371.549
373.791
375.865
377.743
379.396
380.794
381.906
382.705
383.16
383.245
382.934
382.204
381.034
379.407
377.309
374.728
371.659
368.099
364.046
359.506
354.482
348.979
343.003
336.55
329.609
322.139
314.052
305.136
303.147
308.116
312.347
316.109
319.551
322.761
325.803
328.721
331.548
334.311
337.029
339.716
342.381
345.031
347.668
350.289
352.891
355.465
358
360.483
362.898
365.224
367.442
369.528
371.457
373.203
374.739
376.037
377.07
377.811
378.231
378.307
378.014
377.33
376.236
374.716
372.755
370.345
367.479
364.152
360.365
356.12
351.419
346.266
340.663
334.606
328.077
321.034
313.385
304.913
303.05
307.824
311.861
315.43
318.679
321.696
324.546
327.271
329.905
332.475
334.998
337.489
339.957
342.409
344.847
347.27
349.673
352.049
354.389
356.68
358.907
361.053
363.097
365.02
366.798
368.407
369.822
371.017
371.968
372.648
373.033
373.1
372.826
372.191
371.177
369.769
367.954
365.723
363.07
359.989
356.481
352.545
348.185
343.4
338.191
332.55
326.457
319.866
312.679
304.677
302.944
307.508
311.335
314.695
317.736
320.548
323.192
325.713
328.143
330.508
332.827
335.113
337.375
339.621
341.852
344.067
346.263
348.435
350.572
352.664
354.697
356.655
358.521
360.275
361.897
363.364
364.654
365.743
366.609
367.227
367.576
367.634
367.381
366.797
365.867
364.577
362.915
360.871
358.439
355.616
352.399
348.788
344.783
340.385
335.589
330.385
324.75
318.634
311.935
304.428
302.83
307.164
310.763
313.898
316.716
319.307
321.733
324.038
326.253
328.404
330.509
332.581
334.63
336.661
338.677
340.678
342.661
344.621
346.549
348.436
350.269
352.034
353.716
355.296
356.757
358.079
359.24
360.221
360.999
361.555
361.867
361.917
361.685
361.156
360.314
359.146
357.642
355.792
353.592
351.035
348.121
344.848
341.215
337.219
332.855
328.109
322.954
317.338
311.151
304.166
302.704
306.788
310.139
313.03
315.608
317.963
320.158
322.234
324.224
326.151
328.033
329.883
331.71
333.519
335.314
337.095
338.858
340.6
342.314
343.99
345.619
347.186
348.679
350.083
351.379
352.552
353.582
354.451
355.141
355.633
355.908
355.95
355.742
355.269
354.518
353.477
352.136
350.488
348.526
346.246
343.646
340.723
337.475
333.899
329.984
325.717
321.065
315.972
310.326
303.89
302.565
306.372
309.452
312.077
314.396
316.5
318.448
320.284
322.038
323.731
325.383
327.003
328.601
330.183
331.751
333.305
334.844
336.363
337.857
339.319
340.738
342.104
343.405
344.627
345.756
346.777
347.674
348.43
349.03
349.457
349.696
349.731
349.547
349.133
348.476
347.565
346.393
344.951
343.235
341.241
338.965
336.404
333.555
330.412
326.966
323.198
319.073
314.531
309.453
303.597
302.409
305.907
308.685
311.019
313.058
314.892
316.58
318.163
319.67
321.121
322.534
323.918
325.281
326.63
327.965
329.288
330.598
331.89
333.161
334.404
335.61
336.771
337.877
338.915
339.874
340.742
341.503
342.145
342.654
343.016
343.218
343.246
343.089
342.735
342.174
341.397
340.398
339.169
337.705
336.003
334.06
331.872
329.435
326.742
323.782
320.534
316.962
312.999
308.524
303.286
302.23
305.376
307.814
309.826
311.56
313.104
314.517
315.835
317.085
318.286
319.452
320.594
321.717
322.827
323.926
325.014
326.091
327.153
328.197
329.218
330.209
331.162
332.07
332.922
333.71
334.421
335.046
335.573
335.99
336.287
336.451
336.473
336.343
336.051
335.589
334.95
334.126
333.114
331.909
330.506
328.904
327.098
325.085
322.856
320.4
317.695
314.703
311.355
307.523
302.95
302.017
304.748
306.797
308.449
309.85
311.085
312.205
313.246
314.23
315.173
316.088
316.982
317.86
318.728
319.587
320.436
321.277
322.106
322.92
323.717
324.49
325.233
325.941
326.606
327.22
327.775
328.262
328.672
328.997
329.228
329.356
329.373
329.27
329.042
328.68
328.18
327.537
326.745
325.802
324.705
323.451
322.037
320.458
318.707
316.772
314.633
312.251
309.557
306.422
302.578
301.748
303.971
305.563
306.807
307.844
308.748
309.562
310.315
311.025
311.703
312.361
313.002
313.633
314.255
314.87
315.479
316.081
316.675
317.258
317.828
318.381
318.914
319.42
319.896
320.335
320.732
321.081
321.374
321.607
321.772
321.863
321.874
321.801
321.637
321.377
321.019
320.557
319.99
319.314
318.526
317.626
316.61
315.475
314.214
312.817
311.266
309.528
307.537
305.168
302.149
301.371
302.931
303.973
304.758
305.399
305.951
306.446
306.902
307.331
307.74
308.136
308.522
308.902
309.276
309.646
310.012
310.374
310.731
311.081
311.424
311.756
312.076
312.38
312.666
312.93
313.168
313.378
313.554
313.694
313.793
313.847
313.854
313.81
313.711
313.555
313.339
313.062
312.72
312.313
311.84
311.298
310.686
310.001
309.24
308.396
307.454
306.392
305.16
303.651
301.612
300.733
301.372
301.75
302.021
302.239
302.425
302.591
302.743
302.887
303.024
303.156
303.285
303.412
303.536
303.66
303.782
303.903
304.022
304.139
304.253
304.364
304.471
304.572
304.667
304.755
304.835
304.905
304.964
305.01
305.043
305.061
305.064
305.049
305.016
304.964
304.892
304.799
304.685
304.549
304.391
304.21
304.006
303.777
303.523
303.24
302.924
302.566
302.145
301.612
300.813
300.294
300.724
301.041
301.291
301.499
301.681
301.844
301.996
302.139
302.275
302.407
302.536
302.663
302.788
302.912
303.034
303.155
303.275
303.392
303.506
303.618
303.725
303.826
303.922
304.01
304.09
304.16
304.219
304.265
304.299
304.317
304.319
304.304
304.271
304.219
304.147
304.054
303.94
303.804
303.646
303.465
303.26
303.032
302.779
302.498
302.186
301.837
301.438
300.965
300.375
300.724
301.883
302.785
303.513
304.129
304.668
305.156
305.609
306.035
306.444
306.84
307.226
307.606
307.981
308.351
308.718
309.081
309.439
309.79
310.134
310.467
310.787
311.093
311.379
311.644
311.883
312.093
312.269
312.409
312.509
312.564
312.57
312.526
312.427
312.271
312.055
311.777
311.435
311.027
310.553
310.011
309.399
308.716
307.958
307.119
306.19
305.152
303.974
302.604
300.966
301.04
302.782
304.191
305.357
306.356
307.24
308.044
308.791
309.498
310.176
310.832
311.474
312.105
312.728
313.345
313.955
314.558
315.154
315.738
316.31
316.864
317.398
317.906
318.383
318.824
319.222
319.571
319.865
320.098
320.264
320.355
320.367
320.293
320.129
319.869
319.51
319.048
318.479
317.802
317.015
316.114
315.098
313.965
312.708
311.32
309.787
308.084
306.171
303.983
301.442
301.287
303.503
305.346
306.905
308.26
309.471
310.579
311.612
312.592
313.534
314.448
315.342
316.222
317.091
317.951
318.803
319.645
320.476
321.293
322.091
322.866
323.612
324.321
324.988
325.603
326.16
326.648
327.06
327.386
327.617
327.745
327.762
327.66
327.431
327.069
326.568
325.923
325.131
324.187
323.089
321.834
320.42
318.843
317.097
315.174
313.056
310.717
308.114
305.182
301.849
301.49
304.105
306.326
308.236
309.919
311.436
312.833
314.143
315.388
316.588
317.754
318.896
320.021
321.133
322.234
323.324
324.403
325.468
326.515
327.538
328.531
329.487
330.397
331.252
332.041
332.755
333.381
333.91
334.328
334.625
334.791
334.813
334.683
334.39
333.927
333.287
332.462
331.448
330.241
328.837
327.234
325.429
323.418
321.195
318.751
316.071
313.126
309.876
306.258
302.212
301.665
304.624
307.177
309.405
311.389
313.194
314.865
316.439
317.941
319.391
320.803
322.188
323.553
324.903
326.242
327.568
328.88
330.176
331.45
332.695
333.905
335.069
336.177
337.219
338.18
339.05
339.814
340.458
340.968
341.331
341.533
341.562
341.404
341.05
340.488
339.71
338.708
337.477
336.012
334.308
332.364
330.176
327.741
325.054
322.107
318.886
315.364
311.503
307.248
302.544
301.818
305.082
307.933
310.45
312.712
314.785
316.716
318.542
320.29
321.982
323.633
325.255
326.855
328.44
330.011
331.568
333.111
334.634
336.132
337.597
339.019
340.389
341.693
342.919
344.051
345.074
345.974
346.732
347.334
347.762
348.002
348.037
347.853
347.438
346.78
345.867
344.693
343.249
341.531
339.534
337.256
334.695
331.848
328.712
325.279
321.538
317.465
313.026
308.171
302.854
301.956
305.494
308.615
311.395
313.915
316.239
318.415
320.482
322.466
324.392
326.274
328.125
329.955
331.768
333.566
335.35
337.118
338.864
340.582
342.263
343.895
345.467
346.964
348.371
349.671
350.847
351.88
352.751
353.443
353.936
354.213
354.255
354.047
353.573
352.82
351.777
350.434
348.783
346.818
344.536
341.934
339.01
335.764
332.193
328.292
324.051
319.452
314.464
309.042
303.145
302.081
305.868
309.236
312.26
315.019
317.578
319.985
322.28
324.49
326.64
328.745
330.819
332.87
334.905
336.925
338.931
340.919
342.883
344.816
346.708
348.546
350.315
352.002
353.586
355.051
356.376
357.541
358.524
359.305
359.862
360.175
360.225
359.993
359.463
358.62
357.449
355.942
354.09
351.886
349.326
346.41
343.135
339.503
335.513
331.162
326.442
321.34
315.828
309.866
303.421
302.196
306.211
309.806
313.055
316.036
318.815
321.441
323.952
326.378
328.742
331.061
333.349
335.615
337.865
340.1
342.321
344.522
346.699
348.842
350.939
352.977
354.941
356.811
358.57
360.196
361.667
362.96
364.052
364.92
365.541
365.891
365.949
365.695
365.111
364.179
362.887
361.221
359.174
356.738
353.911
350.691
347.078
343.074
338.68
333.897
328.719
323.136
317.125
310.65
303.683
302.301
306.527
310.331
313.789
316.978
319.963
322.794
325.51
328.14
330.708
333.232
335.726
338.198
340.655
343.098
345.526
347.934
350.317
352.663
354.96
357.192
359.344
361.394
363.321
365.104
366.717
368.136
369.335
370.288
370.97
371.356
371.423
371.149
370.513
369.497
368.086
366.268
364.033
361.375
358.291
354.778
350.84
346.479
341.699
336.502
330.887
324.845
318.358
311.395
303.932
302.398
306.819
310.817
314.468
317.85
321.028
324.052
326.96
329.783
332.546
335.265
337.955
340.625
343.28
345.922
348.549
351.157
353.738
356.279
358.769
361.189
363.522
365.745
367.837
369.771
371.521
373.062
374.364
375.4
376.142
376.564
376.64
376.347
375.661
374.565
373.042
371.078
368.664
365.792
362.461
358.669
354.421
349.719
344.57
338.978
332.945
326.467
319.528
312.102
304.169
302.488
307.088
311.265
315.096
318.657
322.015
325.219
328.308
331.314
334.259
337.163
340.04
342.897
345.741
348.573
351.391
354.19
356.96
359.689
362.363
364.963
367.47
369.86
372.108
374.188
376.071
377.728
379.13
380.246
381.046
381.503
381.589
381.277
380.546
379.374
377.743
375.64
373.055
369.981
366.415
362.358
357.813
352.787
347.288
341.322
334.894
328.002
320.635
312.77
304.392
302.571
307.336
311.679
315.675
319.403
322.927
326.299
329.557
332.733
335.851
338.929
341.981
345.015
348.038
351.05
354.049
357.028
359.978
362.886
365.736
368.508
371.18
373.728
376.126
378.345
380.354
382.123
383.62
384.812
385.669
386.16
386.255
385.927
385.152
383.908
382.177
379.943
377.196
373.93
370.142
365.834
361.01
355.679
349.849
343.529
336.728
329.447
321.676
313.399
304.603
302.646
307.563
312.058
316.207
320.088
323.767
327.294
330.709
334.043
337.321
340.562
343.778
346.979
350.169
353.35
356.519
359.668
362.788
365.864
368.879
371.813
374.642
377.34
379.879
382.229
384.358
386.233
387.819
389.084
389.995
390.517
390.622
390.28
389.464
388.153
386.327
383.971
381.073
377.627
373.631
369.087
364.002
358.383
352.244
345.594
338.444
330.797
322.65
313.987
304.799
302.715
307.77
312.404
316.692
320.713
324.534
328.204
331.763
335.244
338.67
342.06
345.428
348.784
352.13
355.469
358.796
362.104
365.381
368.614
371.784
374.869
377.844
380.682
383.354
385.826
388.067
390.041
391.712
393.045
394.006
394.559
394.673
394.317
393.465
392.092
390.178
387.708
384.669
381.057
376.868
372.105
366.776
360.892
354.464
347.508
340.034
332.05
323.553
314.532
304.981
302.778
307.958
312.717
317.131
321.28
325.228
329.028
332.719
336.333
339.895
343.422
346.93
350.427
353.917
357.4
360.872
364.326
367.75
371.127
374.44
377.664
380.774
383.742
386.535
389.122
391.466
393.531
395.281
396.677
397.684
398.266
398.389
398.022
397.136
395.706
393.712
391.137
387.969
384.203
379.837
374.874
369.322
363.193
356.502
349.263
341.492
333.198
324.381
315.032
305.149
302.834
308.126
312.997
317.524
321.786
325.85
329.766
333.576
337.31
340.993
344.645
348.279
351.904
355.523
359.138
362.742
366.329
369.885
373.394
376.836
380.187
383.42
386.505
389.41
392.1
394.538
396.687
398.508
399.962
401.012
401.62
401.752
401.374
400.457
398.977
396.91
394.24
390.956
387.051
382.524
377.379
371.625
365.275
358.345
350.852
342.812
334.237
325.13
315.484
305.3
302.883
308.273
313.243
317.87
322.233
326.398
330.417
334.331
338.172
341.964
345.726
349.472
353.21
356.945
360.676
364.398
368.103
371.777
375.404
378.961
382.425
385.768
388.959
391.963
394.746
397.268
399.492
401.377
402.883
403.971
404.603
404.742
404.355
403.412
401.886
399.755
397.001
393.613
389.585
384.915
379.608
373.674
367.127
359.984
352.264
343.985
335.161
325.796
315.886
305.434
302.925
308.4
313.456
318.168
322.617
326.871
330.979
334.984
338.916
342.802
346.66
350.503
354.34
358.176
362.009
365.833
369.641
373.418
377.147
380.805
384.368
387.807
391.09
394.181
397.044
399.641
401.93
403.87
405.422
406.543
407.196
407.343
406.948
405.982
404.416
402.229
399.402
395.924
391.788
386.994
381.547
375.456
368.738
361.41
353.493
345.006
335.964
326.375
316.236
305.551
302.961
308.507
313.634
318.418
322.94
327.267
331.45
335.531
339.541
343.506
347.444
351.37
355.291
359.211
363.129
367.041
370.936
374.8
378.615
382.359
386.006
389.526
392.886
396.051
398.982
401.641
403.986
405.974
407.564
408.714
409.385
409.537
409.136
408.151
406.552
404.317
401.429
397.875
393.648
388.749
383.183
376.96
370.098
362.614
354.53
345.868
336.643
326.864
316.531
305.65
302.989
308.592
313.777
318.619
323.2
327.586
331.829
335.972
340.044
344.073
348.076
352.068
356.056
360.045
364.033
368.015
371.98
375.915
379.8
383.613
387.328
390.913
394.336
397.561
400.548
403.258
405.647
407.674
409.295
410.469
411.154
411.311
410.905
409.904
408.279
406.006
403.068
399.452
395.152
390.168
384.506
378.177
371.197
363.587
355.369
346.564
337.191
327.259
316.77
305.73
303.011
308.657
313.884
318.77
323.395
327.826
332.115
336.304
340.424
344.5
348.553
352.595
356.634
360.675
364.715
368.75
372.769
376.757
380.695
384.561
388.326
391.962
395.433
398.703
401.732
404.48
406.903
408.959
410.604
411.795
412.491
412.653
412.243
411.23
409.585
407.283
404.307
400.645
396.29
391.241
385.506
379.096
372.028
364.323
356.003
347.091
337.606
327.558
316.95
305.79
303.025
308.7
313.956
318.871
323.526
327.987
332.306
336.526
340.677
344.786
348.872
352.947
357.021
361.096
365.172
369.242
373.297
377.321
381.295
385.196
388.996
392.665
396.168
399.468
402.526
405.299
407.746
409.821
411.482
412.685
413.389
413.553
413.141
412.12
410.46
408.14
405.139
401.445
397.052
391.961
386.178
379.713
372.586
364.816
356.428
347.444
337.884
327.759