/*--------------------------------*- C++ -*----------------------------------*\
| =========                 |                                                 |
| \\      /  F ield         | OpenFOAM: The Open Source CFD Toolbox           |
|  \\    /   O peration     | Version:  5.x                                   |
|   \\  /    A nd           | Web:      www.OpenFOAM.org                      |
|    \\/     M anipulation  |                                                 |
\*---------------------------------------------------------------------------*/
FoamFile
{
    version     2.0;
    format      ascii;
    class       volScalarField;
    location    "0.1";
    object      gradTy;
}
// * * * * * * * * * * * * * * * * * * * * * * * * * * * * * * * * * * * * * //

dimensions      [0 -1 0 1 0 0 0];

internalField   nonuniform List<scalar> 
25000
(
4508.24
8506.72
10583.9
11789.2
12550
13072.2
13468.7
13808.4
14136.3
14484.2
14875.3
15328
15856.9
16474.2
17190
18011.9
18945.6
19993.9
21157.2
22432.4
23813.6
25291.5
26853.8
28485.3
30168.5
31884.2
33611.8
35330
37017.4
38653.3
40217.4
41690.5
43054.5
44291.8
45385.6
46318.9
47074.6
47634.3
47977.9
48082.2
47919.1
47451.2
46625.8
45362.5
43533
40925.6
37184.4
31702.2
23422.8
10472
1795.01
4277.51
5859.15
6877.48
7560.54
8049.89
8435.15
8775.51
9112.02
9474.54
9885.87
10364.2
10924.7
11579.8
12340.1
13213.9
14207
15322.9
16561.7
17920.7
19393.3
20970
22637.6
24380
26178.5
28012.1
29858.7
31694.8
33497.1
35242.4
36908
38472.2
39914.3
41214.5
42353.6
43312.7
44073.2
44615.6
44919.3
44961.3
44713.9
44141.1
43191.2
41785.1
39795.4
37013.1
33094.2
27485.5
19349.8
7660.48
891.032
2381.49
3484.21
4273.84
4848.02
5288.77
5658.31
6003.06
6358.07
6750.64
7202.78
7732.89
8356.7
9087.82
9937.75
10915.8
12028.9
13281
14672.8
16201.4
17860.3
19639.1
21523.6
23496.1
25536.1
27620.6
29724.6
31822.3
33887.2
35893
37813.9
39624.9
41301.8
42821.3
44160.6
45297.2
46208.8
46872.2
47263.1
47354.8
47116
46506.8
45471.3
43924.6
41731.3
38671.2
34388.5
28328.4
19699.3
7641.92
509.506
1435.56
2192.94
2788.08
3260.1
3654.31
4012.25
4369.23
4754.78
5193.86
5708.01
6316.27
7035.63
7881.24
8866.34
10001.9
11296.2
12754.4
14378
16164.5
18107.1
20194.6
22411.6
24738.7
27152.9
29628.4
32137.4
34650.3
37137.2
39567.7
41912
44140.7
46224.9
48136.3
49846.7
51327.6
52550.2
53484.3
54098.1
54356.8
54220.6
53640.4
52549.3
50848.4
48382.1
44898.1
39988.3
33011.1
23035.8
9001.77
319.908
925.533
1457.62
1912.04
2306.38
2667.53
3024.47
3405.04
3834.98
4337.91
4935.68
5648.61
6495.66
7494.26
8660.02
10006.2
11543.2
13277.9
15212.9
17346.3
19671.3
22176
24843.6
27652.4
30576.8
33587.8
36653.6
39740.6
42814.2
45839.3
48780.6
51603.1
54271.6
56751
59005.3
60997.5
62688.9
64038.9
65004.1
65537.4
65585.5
65084.5
63950.1
62060.5
59226.2
55139.6
49296.9
40891.2
28716
11325.4
217.603
640.1
1033.6
1397.19
1742.5
2088.72
2458.61
2876.13
3365.28
3949.68
4652.44
5496.05
6502.2
7691.36
9082.24
10691.1
12531.1
14611.3
16936
19504.4
22309.6
25339.3
28574.8
31992.5
35563.5
39255
43030.8
46852.4
50679.7
54471.6
58186.5
61782
65215.1
68441.5
71415.3
74087.9
76407.8
78320
79765.5
80680.2
80992.5
80618
79448.2
77329.4
74024
69145.3
62053.1
51704.8
36508.2
14499.7
161.551
481.51
795.511
1107.94
1430.42
1780.03
2177.48
2645.63
3208.63
3891.44
4719.48
5718.3
6913.1
8328.15
9986.05
11906.8
14106.8
16598
19387
22474.2
25853.3
29511.3
33428.2
37577.8
41927.9
46441.4
51077.4
55791.6
60537.8
65267.9
69932.6
74481.1
78860.7
83016.1
86888.7
90415.5
93528.9
96155.7
98216.8
99626.7
100290
100097
98906.2
96523.8
92649.7
86795.1
78144.5
65353.9
46343.3
18502.2
132.376
399.054
673.101
963.763
1284.75
1653.84
2092.18
2623.52
3273.68
4070.13
5041.55
6217.34
7627.01
9299.39
11261.6
13538.1
16149.2
19110.5
22431
26113
30151.2
34532
39234.3
44229.3
49481.5
54949.4
60586.6
66343.2
72165.9
77999
83784.6
89462.2
94967.7
100233
105185
109742
113818
117318
120138
122166
123278
123332
122148
119481
114956
107959
97462.5
81757.9
58175.7
23322.9
119.559
363.725
623.946
913.585
1249.15
1650.47
2140.57
2745.44
3493.64
4416.08
5545.47
6915.8
8561.55
10516.7
12813.6
15481.6
18545.8
22025.5
25933.3
30273.6
35042.2
40225.8
45802
51739.9
58000.6
64538.2
71301.3
78233.4
85274.3
92360.3
99424.1
106394
113195
119742
125946
131707
136914
141446
145171
147947
149614
149991
148855
145901
140663
132386
119792
100749
71898.5
28926.3
116.785
357.602
620.803
923.294
1284.56
1727.11
2276.7
2962.29
3815.98
4872.73
6169.87
7746.49
9642.52
11897.6
14549.8
17633.9
21180.2
25212.4
29746.8
34790.7
40341.4
46386.1
52901.9
59855.9
67206.3
74903.1
82889.8
91104
99478.3
107941
116415
124817
133059
141040
148652
155773
162265
167979
172751
176400
178731
179516
178483
175257
169274
159615
144726
121996
87284.3
35226
119.986
368.912
645.254
969.041
1362.71
1851.69
2464.82
3234.54
4196.83
5391.07
6859.53
8646.71
10798.3
13359.8
16375.3
19885.5
23926
28525.6
33704.5
39473.1
45831.1
52766.7
60256.7
68267
76753.2
85662.1
94932.4
104496
114280
124203
134179
144115
153906
163438
172579
181184
189089
196112
202051
206689
209784
211064
210196
206733
200004
188913
171605
144947
103944
42067.9
126.379
389.498
684.236
1033.39
1462.2
1999.01
2675.86
3528.71
4597.57
5926.31
7562.21
9555.16
11956.6
14818.1
18189.7
22118
26644.3
31802.3
37616.7
44101.6
51259
59078.8
67538.3
76602.6
86225.9
96352.1
106916
117846
129061
140475
151991
163506
174901
186044
196784
206951
216350
224767
231961
237673
241615
243464
242828
239182
231741
219227
199471
168795
121299
49218.7
133.96
413.415
728.026
1103.01
1566.11
2148.44
2885.03
3815.23
4982.88
6436.14
8227
10410.5
13043.6
16183.6
19886.3
24203.9
29183.3
34863.3
41273
48430.3
56340.1
64994.5
74371.6
84437
95143.9
106435
118242
130489
143091
155956
168979
182047
195027
207773
220112
231848
242760
252597
261081
267910
272749
275224
274881
271119
263040
249185
227071
192471
138578
56362.6
141.212
436.121
769.055
1167.23
1660.54
2282.43
3070.57
4067.29
5319.78
6879.96
8804.01
11151.5
13984.4
17364.8
21353.9
26009.3
31382.5
37517.4
44447.3
52193.9
60765.3
70156
80345.9
91301.5
102976
115312
128240
141681
155548
169743
184157
198664
213125
227374
241224
254453
266813
278021
287761
295691
301432
304557
304557
300757
292154
277117
252869
214666
154826
63107.4
146.944
454.014
801.227
1217.29
1733.72
2385.76
3213.11
4260.42
5577.49
7219.23
9245.1
11718.3
14704.6
18270.4
22481.1
27398.4
33078.5
39569
46907.4
55118.8
64214.6
74191.9
85033
96706.1
109166
122355
136204
150635
165558
180872
196463
212201
227936
243491
258662
273208
286856
299294
310175
319119
325706
329466
329840
326086
317110
301135
275125
233882
168952
69000.5
150.202
464.196
819.572
1245.92
1775.72
2445.31
3295.62
4372.73
5728.09
7418.47
9505.46
12054.6
15134.3
18813.6
23161
28241.2
34113.5
40828.9
48427.8
56938.4
66375.3
76738.2
88012.2
100168
113162
126939
141432
156563
172243
188370
204829
221486
238184
254739
270933
286513
301185
314614
326429
336218
343531
347862
348611
344988
335828
319240
291991
248527
179788
73556.2
150.236
464.372
820.121
1247.24
1778.4
2450.17
3303.75
4385.58
5747.53
7446.9
9545.93
12111
15211.3
18917.3
23298.4
28421.1
34346.2
41126.6
48805
57411.7
66963.8
77463.7
88899.4
101245
114459
128491
143275
158737
174791
191335
208257
225420
242667
259809
276623
292846
308172
322253
334700
345083
352932
357718
358814
355402
346274
329473
301649
257033
186178
76291.6
146.49
452.844
799.918
1216.84
1735.6
2392.01
3226.46
4284.48
5616.99
7280.28
9335.55
11848.2
14886.3
18519.7
22817
27844.4
33662.4
40324.5
47873.8
56342.2
65748.4
76097.2
87379.6
99572.4
112640
126533
141193
156548
172517
189004
205899
223069
240359
257582
274513
290891
306406
320707
333399
344048
352175
357247
358630
355498
346640
330090
302478
257992
187082
76770.3
138.62
428.545
757.103
1151.93
1643.4
2265.52
3056.67
4060.13
5324.34
6902.9
8854.14
11240.4
14126.9
17580.2
21666.3
26448.7
31986
38330
45523.2
53597.4
62572.1
72454
83236.5
94900.4
107414
120734
134806
149566
164938
180834
197148
213758
230514
247236
263708
279675
294837
308850
321330
331851
339944
345089
346666
343874
335535
319740
293217
250306
181687
74647.7
126.499
391.097
691.017
1051.54
1500.44
2068.85
2791.91
3709.26
4865.32
6309.23
8094.55
10278.6
12921.3
16083.9
19827.5
24210.7
29288.1
35107.8
41709.8
49124.6
57371.4
66458
76380.2
87122.1
98656.9
110947
123945
137595
151828
166565
181712
197155
212758
228354
243744
258687
272905
286077
297840
307795
315504
320475
322132
319724
312152
297637
273124
233322
169501
69714.1
110.239
340.84
602.269
916.592
1308.07
1803.88
2434.74
3235.3
4244.4
5505.07
7064.19
8971.96
11281
14045.2
17318
21151.4
25593.4
30686.8
36467.3
42962.5
50190.2
58158.5
66864.9
76297.2
86433.1
97241.8
108683
120710
133263
146276
159665
173333
187160
200999
214673
227971
240643
252405
262933
271871
278828
283366
284972
282978
276410
263688
242101
206945
150443
61929.6
90.1855
278.847
492.756
749.99
1070.42
1476.34
1992.9
2648.54
3475.13
4507.97
5785.57
7349.18
9242.08
11508.6
14192.9
17337.7
20982.8
25163.8
29910.5
35246
41185.7
47736.9
54898.6
62661.6
71008.8
79915.9
89351.3
99276.4
109645
120402
131481
142802
154265
165750
177111
188173
198727
208537
217333
224820
230671
234521
235943
234382
229030
218576
200768
171696
124887
51445.4
66.9083
206.88
365.6
556.489
794.31
1095.61
1479.11
1965.92
2579.73
3346.82
4295.82
5457.45
6863.94
8548.3
10543.5
12881.5
15592
18701.7
22233.1
26203.6
30625.2
35503.6
40838.7
46624
52847.5
59491.7
66533.8
73945.7
81693.7
89737.1
98026.9
106503
115093
123706
132233
140542
148477
155861
162491
168144
172574
175508
176624
175506
171548
163766
150472
128729
93672.8
38607.2
41.1734
127.31
224.99
342.477
488.863
674.341
910.436
1210.16
1588.12
2060.5
2644.96
3360.44
4226.83
5264.51
6493.84
7934.56
9605.08
11521.9
13699.1
16147.4
18874.4
21883.9
25175.9
28746.7
32589.2
36692.7
41043.5
45624.5
50415.2
55390.8
60521.1
65769.4
71090.5
76428.8
81716.3
86871.7
91798.6
96386.1
100509
104028
106792
108630
109342
108671
106240
101440
93225.4
79773.8
58065.4
23939.9
13.899
42.9767
75.952
115.616
165.039
227.662
307.38
408.587
536.217
695.736
893.116
1134.76
1427.38
1777.87
2193.12
2679.81
3244.17
3891.79
4627.42
5454.77
6376.37
7393.56
8506.37
9713.6
11012.9
12400.6
13872.3
15422.1
17043.2
18727.2
20464
22241.2
24043.4
25852
27643.8
29391.3
31061.9
32618
34017.1
35212.1
36151.3
36777.2
37021.9
36798.1
35978.4
34356.4
31577.5
27024.4
19673.1
8112.45
-13.8997
-42.9787
-75.9553
-115.62
-165.044
-227.669
-307.387
-408.595
-536.226
-695.746
-893.127
-1134.77
-1427.39
-1777.89
-2193.14
-2679.83
-3244.2
-3891.83
-4627.47
-5454.82
-6376.44
-7393.64
-8506.46
-9713.71
-11013
-12400.8
-13872.4
-15422.3
-17043.4
-18727.4
-20464.2
-22241.4
-24043.6
-25852.1
-27644
-29391.5
-31062.1
-32618.1
-34017.1
-35212.1
-36151.2
-36777.1
-37021.8
-36798.1
-35978.5
-34356.6
-31577.7
-27024.5
-19673.2
-8112.54
-41.1741
-127.312
-224.993
-342.481
-488.868
-674.348
-910.443
-1210.17
-1588.13
-2060.51
-2644.97
-3360.46
-4226.84
-5264.53
-6493.87
-7934.58
-9605.11
-11522
-13699.1
-16147.5
-18874.5
-21884
-25176
-28746.8
-32589.3
-36692.8
-41043.6
-45624.7
-50415.4
-55391
-60521.3
-65769.6
-71090.7
-76428.9
-81716.5
-86871.9
-91798.8
-96386.2
-100509
-104028
-106792
-108629
-109342
-108671
-106240
-101441
-93225.6
-79773.9
-58065.5
-23940
-66.909
-206.882
-365.603
-556.493
-794.316
-1095.62
-1479.12
-1965.93
-2579.74
-3346.83
-4295.83
-5457.46
-6863.95
-8548.32
-10543.5
-12881.5
-15592.1
-18701.8
-22233.2
-26203.7
-30625.3
-35503.7
-40838.8
-46624.1
-52847.6
-59491.9
-66534
-73945.9
-81693.8
-89737.2
-98027.1
-106504
-115093
-123706
-132233
-140542
-148477
-155861
-162491
-168144
-172574
-175508
-176624
-175506
-171548
-163766
-150472
-128729
-93672.9
-38607.3
-90.1861
-278.849
-492.76
-749.994
-1070.43
-1476.34
-1992.91
-2648.55
-3475.14
-4507.98
-5785.58
-7349.2
-9242.1
-11508.6
-14192.9
-17337.7
-20982.8
-25163.8
-29910.5
-35246
-41185.7
-47737
-54898.7
-62661.7
-71008.9
-79916
-89351.4
-99276.6
-109645
-120403
-131482
-142802
-154265
-165751
-177112
-188173
-198727
-208537
-217334
-224820
-230671
-234521
-235943
-234382
-229030
-218576
-200768
-171696
-124887
-51445.4
-110.24
-340.842
-602.272
-916.596
-1308.07
-1803.89
-2434.74
-3235.31
-4244.41
-5505.08
-7064.2
-8971.97
-11281
-14045.2
-17318.1
-21151.4
-25593.4
-30686.8
-36467.4
-42962.5
-50190.3
-58158.6
-66865
-76297.3
-86433.2
-97241.9
-108684
-120710
-133264
-146276
-159665
-173334
-187160
-200999
-214673
-227971
-240644
-252405
-262933
-271871
-278828
-283366
-284972
-282978
-276410
-263688
-242101
-206945
-150443
-61929.7
-126.5
-391.099
-691.02
-1051.54
-1500.45
-2068.86
-2791.91
-3709.27
-4865.33
-6309.24
-8094.56
-10278.6
-12921.3
-16083.9
-19827.5
-24210.8
-29288.1
-35107.8
-41709.9
-49124.6
-57371.4
-66458
-76380.2
-87122.2
-98657
-110947
-123945
-137595
-151828
-166565
-181712
-197155
-212758
-228354
-243744
-258687
-272906
-286077
-297840
-307795
-315504
-320475
-322132
-319724
-312152
-297637
-273124
-233322
-169501
-69714.1
-138.62
-428.547
-757.107
-1151.94
-1643.41
-2265.53
-3056.68
-4060.14
-5324.35
-6902.91
-8854.15
-11240.4
-14126.9
-17580.2
-21666.3
-26448.7
-31986.1
-38330.1
-45523.3
-53597.4
-62572.1
-72454
-83236.6
-94900.5
-107414
-120734
-134806
-149566
-164938
-180834
-197149
-213758
-230514
-247236
-263708
-279675
-294837
-308850
-321330
-331851
-339944
-345089
-346666
-343874
-335535
-319740
-293217
-250306
-181687
-74647.7
-146.491
-452.846
-799.921
-1216.84
-1735.6
-2392.01
-3226.47
-4284.49
-5617
-7280.29
-9335.56
-11848.2
-14886.4
-18519.7
-22817
-27844.4
-33662.5
-40324.5
-47873.8
-56342.2
-65748.4
-76097.3
-87379.6
-99572.4
-112640
-126533
-141193
-156548
-172517
-189005
-205899
-223069
-240359
-257582
-274514
-290891
-306406
-320707
-333399
-344048
-352175
-357247
-358630
-355498
-346640
-330090
-302478
-257992
-187082
-76770.3
-150.236
-464.374
-820.124
-1247.24
-1778.41
-2450.17
-3303.76
-4385.58
-5747.54
-7446.91
-9545.95
-12111
-15211.3
-18917.3
-23298.4
-28421.1
-34346.3
-41126.7
-48805
-57411.7
-66963.8
-77463.7
-88899.5
-101245
-114459
-128491
-143275
-158737
-174791
-191336
-208257
-225420
-242667
-259809
-276623
-292846
-308172
-322253
-334700
-345084
-352932
-357718
-358814
-355402
-346274
-329473
-301649
-257033
-186178
-76291.6
-150.203
-464.198
-819.575
-1245.92
-1775.72
-2445.31
-3295.62
-4372.74
-5728.1
-7418.48
-9505.47
-12054.7
-15134.3
-18813.7
-23161
-28241.2
-34113.5
-40828.9
-48427.8
-56938.5
-66375.3
-76738.2
-88012.2
-100168
-113162
-126939
-141432
-156563
-172243
-188370
-204829
-221486
-238184
-254739
-270934
-286513
-301185
-314614
-326429
-336218
-343531
-347862
-348611
-344988
-335828
-319240
-291991
-248527
-179788
-73556.1
-146.944
-454.016
-801.229
-1217.29
-1733.72
-2385.77
-3213.12
-4260.42
-5577.5
-7219.24
-9245.11
-11718.3
-14704.6
-18270.4
-22481.1
-27398.4
-33078.5
-39569
-46907.4
-55118.8
-64214.6
-74191.9
-85033.1
-96706.1
-109166
-122355
-136204
-150635
-165558
-180872
-196463
-212201
-227936
-243491
-258662
-273208
-286856
-299294
-310175
-319119
-325706
-329466
-329840
-326086
-317110
-301135
-275125
-233882
-168952
-69000.5
-141.213
-436.123
-769.057
-1167.23
-1660.54
-2282.44
-3070.58
-4067.3
-5319.78
-6879.96
-8804.02
-11151.6
-13984.4
-17364.8
-21353.9
-26009.3
-31382.5
-37517.4
-44447.3
-52193.9
-60765.4
-70156
-80345.9
-91301.5
-102976
-115312
-128240
-141681
-155548
-169743
-184157
-198664
-213125
-227374
-241224
-254453
-266813
-278021
-287761
-295691
-301432
-304557
-304557
-300757
-292154
-277117
-252869
-214666
-154826
-63107.3
-133.96
-413.417
-728.028
-1103.01
-1566.12
-2148.45
-2885.03
-3815.24
-4982.89
-6436.14
-8227.01
-10410.5
-13043.6
-16183.6
-19886.3
-24204
-29183.3
-34863.3
-41273
-48430.3
-56340.2
-64994.5
-74371.6
-84437
-95143.9
-106435
-118242
-130489
-143091
-155956
-168979
-182047
-195028
-207773
-220112
-231848
-242760
-252597
-261081
-267910
-272749
-275224
-274881
-271119
-263040
-249185
-227070
-192471
-138578
-56362.5
-126.379
-389.5
-684.238
-1033.4
-1462.2
-1999.02
-2675.86
-3528.71
-4597.58
-5926.32
-7562.22
-9555.16
-11956.6
-14818.1
-18189.7
-22118.1
-26644.3
-31802.3
-37616.7
-44101.6
-51259
-59078.8
-67538.3
-76602.6
-86225.9
-96352.1
-106916
-117846
-129061
-140475
-151991
-163506
-174901
-186044
-196784
-206951
-216350
-224767
-231961
-237673
-241616
-243464
-242828
-239182
-231741
-219227
-199471
-168795
-121299
-49218.6
-119.986
-368.913
-645.256
-969.043
-1362.71
-1851.69
-2464.83
-3234.54
-4196.83
-5391.07
-6859.54
-8646.72
-10798.3
-13359.8
-16375.4
-19885.6
-23926.1
-28525.6
-33704.5
-39473.1
-45831.1
-52766.7
-60256.7
-68267
-76753.2
-85662
-94932.4
-104496
-114280
-124203
-134179
-144115
-153906
-163438
-172579
-181184
-189089
-196112
-202052
-206689
-209784
-211064
-210196
-206733
-200004
-188913
-171604
-144947
-103944
-42067.9
-116.785
-357.603
-620.804
-923.296
-1284.56
-1727.12
-2276.7
-2962.29
-3815.99
-4872.74
-6169.88
-7746.5
-9642.53
-11897.6
-14549.8
-17633.9
-21180.2
-25212.4
-29746.8
-34790.7
-40341.4
-46386.1
-52901.9
-59855.9
-67206.2
-74903.1
-82889.8
-91103.9
-99478.3
-107941
-116415
-124817
-133059
-141040
-148652
-155772
-162265
-167979
-172751
-176400
-178731
-179517
-178483
-175257
-169274
-159615
-144726
-121996
-87284.2
-35226
-119.559
-363.725
-623.946
-913.586
-1249.15
-1650.47
-2140.58
-2745.44
-3493.65
-4416.08
-5545.47
-6915.81
-8561.55
-10516.7
-12813.6
-15481.6
-18545.8
-22025.5
-25933.3
-30273.6
-35042.2
-40225.8
-45802
-51739.9
-58000.5
-64538.2
-71301.2
-78233.3
-85274.3
-92360.2
-99424
-106394
-113195
-119742
-125946
-131707
-136914
-141446
-145171
-147947
-149614
-149991
-148855
-145901
-140663
-132386
-119792
-100749
-71898.4
-28926.2
-132.376
-399.053
-673.1
-963.761
-1284.74
-1653.84
-2092.18
-2623.52
-3273.68
-4070.13
-5041.55
-6217.34
-7627.01
-9299.39
-11261.6
-13538.1
-16149.2
-19110.4
-22431
-26113
-30151.1
-34532
-39234.3
-44229.3
-49481.4
-54949.3
-60586.6
-66343.1
-72165.8
-77998.9
-83784.5
-89462.1
-94967.6
-100233
-105184
-109742
-113818
-117318
-120138
-122166
-123278
-123332
-122148
-119481
-114956
-107959
-97462.5
-81757.9
-58175.7
-23322.9
-161.55
-481.508
-795.508
-1107.94
-1430.41
-1780.03
-2177.48
-2645.62
-3208.62
-3891.43
-4719.48
-5718.29
-6913.09
-8328.14
-9986.04
-11906.8
-14106.8
-16598
-19387
-22474.2
-25853.3
-29511.3
-33428.2
-37577.8
-41927.8
-46441.4
-51077.3
-55791.5
-60537.7
-65267.8
-69932.5
-74481
-78860.6
-83016
-86888.5
-90415.4
-93528.8
-96155.6
-98216.8
-99626.7
-100290
-100097
-98906.2
-96523.8
-92649.6
-86795.1
-78144.5
-65353.8
-46343.3
-18502.1
-217.602
-640.097
-1033.6
-1397.19
-1742.49
-2088.71
-2458.61
-2876.12
-3365.27
-3949.67
-4652.43
-5496.04
-6502.19
-7691.34
-9082.22
-10691.1
-12531.1
-14611.3
-16936
-19504.3
-22309.6
-25339.2
-28574.8
-31992.5
-35563.5
-39254.9
-43030.7
-46852.3
-50679.6
-54471.5
-58186.3
-61781.8
-65214.9
-68441.4
-71415.2
-74087.8
-76407.7
-78319.9
-79765.4
-80680.1
-80992.4
-80618
-79448.3
-77329.4
-74024
-69145.3
-62053.1
-51704.7
-36508.2
-14499.7
-319.907
-925.53
-1457.62
-1912.04
-2306.37
-2667.52
-3024.46
-3405.03
-3834.97
-4337.9
-4935.66
-5648.59
-6495.64
-7494.24
-8660
-10006.2
-11543.2
-13277.8
-15212.8
-17346.2
-19671.3
-22176
-24843.5
-27652.3
-30576.7
-33587.7
-36653.4
-39740.5
-42814.1
-45839.1
-48780.4
-51602.9
-54271.5
-56750.9
-59005.1
-60997.3
-62688.8
-64038.8
-65004
-65537.3
-65585.5
-65084.5
-63950.1
-62060.5
-59226.2
-55139.6
-49296.9
-40891.2
-28716
-11325.4
-509.505
-1435.55
-2192.93
-2788.07
-3260.08
-3654.3
-4012.24
-4369.21
-4754.76
-5193.84
-5707.99
-6316.25
-7035.6
-7881.22
-8866.31
-10001.9
-11296.2
-12754.4
-14378
-16164.5
-18107.1
-20194.6
-22411.6
-24738.6
-27152.8
-29628.3
-32137.2
-34650.2
-37137
-39567.6
-41911.8
-44140.5
-46224.7
-48136.1
-49846.5
-51327.5
-52550.1
-53484.2
-54097.9
-54356.7
-54220.6
-53640.4
-52549.3
-50848.4
-48382.1
-44898.1
-39988.3
-33011.1
-23035.8
-9001.76
-891.031
-2381.48
-3484.21
-4273.83
-4848.01
-5288.75
-5658.29
-6003.04
-6358.05
-6750.61
-7202.75
-7732.85
-8356.67
-9087.78
-9937.71
-10915.8
-12028.9
-13280.9
-14672.7
-16201.3
-17860.3
-19639
-21523.5
-23496
-25536
-27620.4
-29724.5
-31822.1
-33887.1
-35892.9
-37813.7
-39624.7
-41301.6
-42821.1
-44160.4
-45297
-46208.6
-46872
-47262.9
-47354.6
-47115.9
-46506.8
-45471.3
-43924.6
-41731.3
-38671.2
-34388.5
-28328.5
-19699.3
-7641.92
-1795
-4277.5
-5859.14
-6877.46
-7560.52
-8049.87
-8435.13
-8775.49
-9111.99
-9474.5
-9885.83
-10364.2
-10924.6
-11579.8
-12340.1
-13213.8
-14207
-15322.8
-16561.7
-17920.6
-19393.2
-20969.9
-22637.5
-24379.9
-26178.3
-28012
-29858.5
-31694.6
-33496.9
-35242.2
-36907.7
-38471.9
-39914.1
-41214.2
-42353.3
-43312.5
-44073
-44615.4
-44919.1
-44961.2
-44713.8
-44141
-43191.2
-41785.1
-39795.4
-37013.1
-33094.2
-27485.5
-19349.9
-7660.48
-4508.23
-8506.72
-10583.9
-11789.2
-12550
-13072.2
-13468.7
-13808.4
-14136.3
-14484.2
-14875.3
-15327.9
-15856.9
-16474.2
-17189.9
-18011.8
-18945.5
-19993.8
-21157.1
-22432.3
-23813.5
-25291.4
-26853.6
-28485.1
-30168.4
-31884.1
-33611.6
-35329.7
-37017.2
-38653
-40217.1
-41690.2
-43054.2
-44291.5
-45385.3
-46318.7
-47074.3
-47634
-47977.6
-48082.1
-47919
-47451.1
-46625.8
-45362.5
-43533
-40925.6
-37184.5
-31702.2
-23422.8
-10472
1794.54
4275.04
5852.86
6865.21
7539.79
8017.69
8387.9
8708.89
9020.82
9352.56
9725.84
10157.7
10662
11250
11931
12712.1
13598.1
14591.5
15691.6
16895.1
18195.2
19582
21042.4
22560.7
24118.5
25695.4
27269.7
28818.8
30320.1
31751.3
33091
34318.9
35416.3
36366
37152.2
37760.9
38178.9
38393.9
38393.6
38164.5
37689.8
36945.8
35895.3
34477.1
32589.2
30062.5
26622.8
21844.7
15127.1
5832.33
1123.53
2931.75
4210.27
5087.95
5700.68
6151.2
6512
6834.13
7154.4
7500.18
7892.71
8349.05
8883.28
9507.2
10230.5
11060.7
12003.1
13060.3
14231.8
15514.1
16900.3
18379.9
19939.3
21561.5
23227.1
24914.3
26599.9
28259.5
29868.7
31403.3
32839.7
34155.7
35330.8
36345.7
37183.1
37827.4
38264.1
38480.1
38462.4
38197.4
37668.5
36852.1
35711.4
34185.2
32171.4
29501.2
25906.3
20988.8
14242.2
5285.15
685.953
1894.72
2835.68
3535.51
4058.41
4467.65
4815.39
5142.46
5480.66
5855.19
6286.62
6792.19
7386.66
8082.71
8890.99
9820.02
10875.8
12061.5
13377.1
14818.9
16379.6
18048
19809.1
21644.5
23532.6
25449.4
27368.8
29263.8
31106.6
32869.7
34526.4
36051.1
37419.7
38609.7
39600.6
40373.4
40910.8
41197
41216.4
40953.2
40388.6
39497.1
38239.4
36550.5
34322.6
31378.2
27438.8
22101.6
14879.7
5463.32
432.778
1234.09
1906.07
2446.04
2882.13
3251.4
3589.92
3929.42
4297.04
4716
5206.51
5786.42
6471.66
7276.37
8212.76
9290.8
10517.8
11897.9
13431.6
15115.3
16941.4
18897.5
20967.1
23129.5
25360.6
27633
29917.1
32181.8
34395.2
36525.2
38540.4
40410.4
42106.1
43600.1
44866.6
45881.6
46622.5
47068.3
47198.3
46991.8
46424.9
45466.8
44071.6
42165.2
39625.2
36249.9
31721.4
25576.2
17246.2
6350.42
285.816
830.86
1315.98
1735.91
2104.69
2445.57
2784.55
3147.19
3557.38
4037.28
4607.39
5286.83
6093.35
7043.19
8150.73
9428.03
10884.2
12524.8
14351.2
16360.2
18543.5
20887.9
23374.8
25980.9
28678.6
31436.7
34221
36995.3
39722.1
42363.6
44882.4
47241.4
49404.9
51338.6
53009.4
54385.8
55437.4
56135.4
56451.2
56356
55817.9
54797.1
53236.7
51047.3
48081.4
44095.2
38699
31313.6
21207.6
7850.5
200.099
589.898
955.553
1296.2
1622.14
1950.79
2303.11
2701.43
3168.24
3725.78
4395.81
5199.47
6157.05
7287.59
8608.32
10134
11876.1
13842.1
16034.7
18451.1
21082.8
23915.2
26927.7
30093.9
33382.3
36756.8
40177.8
43603
46988.3
50288.6
53458.7
56453.7
59229.2
61741.8
63948.9
65808.9
67281.2
68326.1
68904.3
68975.8
68497.3
67416.3
65660.5
63118.1
59605.9
54819.6
48266.2
39200.9
26661.5
9914.25
151.225
451.238
746.848
1042.39
1348.71
1681.78
2060.99
2507.86
3045.17
3696.45
4485.66
5436.79
6573.42
7918.1
9491.59
11312
13393.7
15746.7
18375.2
21277.3
24444.4
27860.5
31502.9
35341.6
39340.8
43459
47650.3
51865.3
56052.1
60157.2
64126.2
67904.3
71436.9
74669.4
77547.2
80016.3
82023
83513.8
84435.6
84734
84350.8
83217.1
81240
78278.8
74103.8
68331.9
60337.3
49162.9
33553.4
12521.4
125.297
377.929
638.083
914.675
1220.72
1573.03
1991.59
2498.87
3119.27
3878.73
4804.27
5923.5
7264.01
8852.53
10714
12870.4
15339.8
18135
21262.3
24720.9
28502.3
32589.5
36957.1
41571.9
46393.1
51373.5
56460.1
61595.9
66720
71769.4
76679.4
81383.8
85815.8
89907.6
93590.7
96796
99453.7
101494
102846
103439
103195
102025
99810.5
96375.8
91433.8
84505.7
74804.4
61115.9
41830.9
15655.3
113.892
346.573
594.768
871.274
1191.81
1575.21
2043.32
2620.75
3334.56
4213.9
5289.61
6593.57
8157.98
10014.3
12192.3
14718.5
17614.9
20897.6
24575.6
28649.7
33111.4
37943
43116.9
48596.1
54335.1
60280.4
66372.1
72544.3
78727
84846.8
90827.4
96590.1
102054
107138
111755
115820
119245
121939
123812
124772
124719
123540
121087
117140
111347
103117
91476
74910.4
51397.6
19282.8
111.614
341.79
593.403
882.603
1227.95
1650.86
2175.77
2830.15
3644.4
4651.49
5886.6
7386.38
9188.09
11328.5
13842.4
16761.3
20111.7
23913.6
28178.9
32910.2
38099.8
43729.2
49768.8
56178.4
62907.6
69896.9
77078.7
84379
91717.9
99010.9
106170
113102
119713
125903
131570
136607
140905
144353
146837
148239
148436
147285
144604
140128
133427
123786
110021
90281.4
62077
23339.7
114.837
353.071
617.496
927.222
1303.62
1770.89
2356.41
3090.94
4008.54
5146.36
6544.21
8243.78
10287.7
12718.1
15575.3
18896.2
22711.8
27046.5
31915.3
37323.1
43263.3
49717.1
56653.4
64028.7
71788.4
79867.2
88190.5
96675.7
105233
113768
122179
130361
138201
145585
152390
158489
163750
168037
171210
173126
173631
172555
169675
164674
157043
145930
129925
106810
73583.7
27720.2
121.018
372.947
655.056
989.086
1399.07
1911.98
2558.23
3371.92
4390.9
5656.57
7213.39
9108.13
11388.7
14102.9
17296.5
21011.4
25284.1
30142.8
35606.2
41681.9
48364.6
55635.7
63463
71800.6
80590.1
89760.9
99232.1
108913
118706
128504
138195
147659
156770
165392
173386
180602
186883
192068
195991
198478
199348
198394
195357
189864
181321
168737
150463
123901
85507.8
32269.8
128.291
395.882
697.015
1055.73
1498.45
2054.76
2757.92
3645.23
4758.15
6142.1
7846
9921.39
12421.3
15398.7
18904.8
22986.5
27685.1
33033.2
39053.1
45755.1
53135.7
61177.1
69846.5
79096.3
88865.1
99078.2
109649
120481
131467
142492
153431
164153
174515
184367
193548
201886
209202
215307
220009
223104
224381
223599
220458
214531
205142
191160
170698
140777
97310.5
36784.4
135.229
417.599
736.241
1117.09
1588.62
2182.63
2934.86
3885.44
5078.99
6564.46
8394.68
10625.4
13314.3
16518.9
20295
24694.6
29763
35537.1
42042.7
49292.8
57286.2
66005.9
75419.6
85478.8
96120.1
107266
118826
130697
142767
154912
166998
178882
190409
201412
211713
221118
229427
236427
241895
245604
247310
246742
243561
237288
227168
211941
189499
156498
108336
41013.8
140.703
434.685
766.951
1164.86
1658.41
2281.12
3070.65
4069.3
5324.17
6886.99
8813.67
11163.4
13997.3
17376.7
21361.5
26007.3
31363.3
37469.9
44356.1
52037.6
60515.4
69774.3
79782.5
90491.8
101838
113743
126112
138840
151811
164893
177947
190820
203346
215345
226622
236970
246164
253972
260146
264435
266567
266242
263088
256582
245900
229669
205589
170000
117839
44672.7
143.806
444.381
784.417
1192.11
1698.37
2337.74
3149.06
4175.97
5467.1
7075.96
9060.41
11481.8
14403.6
17889.9
22003
26801.4
32337.1
38653
45781
53739.1
62530.4
72141.6
82542.7
93686.4
105509
117933
130863
144193
157804
171562
185323
198928
212204
224962
236995
248082
257983
266448
273212
278000
280522
280454
277398
270794
259769
242862
217627
180158
125031
47457.9
143.823
444.5
784.853
1193.23
1700.73
2342.1
3156.43
4187.69
5484.91
7102.07
9097.65
11533.7
14474.6
17985.4
22129.5
26966.8
32550.7
38925.9
46125.8
54170.6
63065.2
72798.6
83342.7
94652.6
106667
119309
132486
146093
160011
174108
188237
202239
215936
229134
241622
253168
263526
272432
279610
284772
287614
287795
284903
278356
267250
250077
224303
185873
129136
49070.7
140.223
433.422
765.441
1164.03
1659.62
2286.25
3082.24
4090.68
5359.7
6942.3
8895.98
11281.8
14163.3
17604.7
21668.7
26414.9
31896.6
38158.8
45235.5
53148.2
61903.4
71492.3
81889.5
93053
104925
117432
130487
143987
157818
171850
185940
199931
213648
226898
239467
251126
261624
270694
278057
283421
286477
286880
284211
277888
267002
250040
224455
186166
129462
49243.5
132.678
410.13
724.408
1101.84
1571.32
2165.16
2919.75
3876.09
5079.92
6581.72
8436.27
10701.8
13439.1
16709.3
20572.9
25087
30303.1
36264.8
43005.9
50547.8
58898.5
68051
77982.9
88656.5
100019
112001
124523
137488
150789
164305
177898
191419
204700
217555
229778
241146
251414
260322
267598
272954
276087
276662
274269
268342
257999
241772
217191
180280
125474
47767.7
121.068
374.262
661.126
1005.73
1434.51
1977.04
2666.63
3540.82
4641.55
6015.11
7711.78
9785.08
12290.8
15285.4
18824.6
22961.2
27743.1
33211
39396.6
46320.7
53991.7
62404.7
71540.4
81365.8
91833.7
102883
114442
126423
138728
151248
163857
176418
188775
200757
212172
222812
232448
240837
247722
252834
255888
256568
254491
249130
239661
224718
201995
167779
116856
44519.6
105.5
326.148
576.18
876.609
1250.51
1723.71
2325.32
3088.16
4048.89
5248.03
6729.59
8540.47
10729.6
13346.6
16440.4
20057.5
24240.3
29025
34439.8
40503.9
47225.3
54600.6
62614.2
71238.3
80432.7
90145.7
100314
110864
121710
132756
143894
155003
165947
176573
186713
196180
204774
212276
218457
223078
225883
226592
224863
220227
211956
198835
178820
148612
103567
39481.3
86.3039
266.814
471.388
717.238
1023.27
1410.65
1903.24
2527.94
3314.86
4297.22
5511.17
6995.26
8789.68
10935.3
13472.5
16439.6
19871.6
23798.6
28244.3
33224.7
38747.1
44809.4
51399.4
58495.1
66064.2
74065.1
82446.7
91148.9
100103
109229
118440
127635
136703
145518
153941
161816
168976
175241
180418
184309
186700
187357
185997
182229
175449
164652
148138
123167
85875.3
32753
64.0262
197.946
349.732
532.167
759.29
1046.82
1412.5
1876.32
2460.65
3190.2
4091.88
5194.36
6527.59
8122.02
10007.7
12213.4
14765.2
17685.7
20992.7
24698.5
28808.8
33322.3
38230.5
43517.2
49159.1
55125.6
61379
67875.2
74563
81384.3
88273.1
95155.5
101948
108556
114876
120791
126177
130896
134805
137753
139581
140113
139134
136353
131317
123271
110941
92270.5
64356.1
24554.6
39.3989
121.809
215.219
327.5
467.297
644.293
869.413
1154.98
1514.76
1964.02
2519.31
3198.33
4019.56
5001.79
6163.59
7522.69
9095.3
10895.4
12934
15218.9
17753.7
20537.7
23565.9
26828.5
30311.2