/*--------------------------------*- C++ -*----------------------------------*\
| =========                 |                                                 |
| \\      /  F ield         | OpenFOAM: The Open Source CFD Toolbox           |
|  \\    /   O peration     | Version:  5.x                                   |
|   \\  /    A nd           | Web:      www.OpenFOAM.org                      |
|    \\/     M anipulation  |                                                 |
\*---------------------------------------------------------------------------*/
FoamFile
{
    version     2.0;
    format      ascii;
    class       volScalarField;
    location    "0.1";
    object      gradTz;
}
// * * * * * * * * * * * * * * * * * * * * * * * * * * * * * * * * * * * * * //

dimensions      [0 -1 0 1 0 0 0];

internalField   nonuniform List<scalar> 
25000
(
-6333.93
-6850.54
-7000.08
-7053.07
-7075.51
-7086.62
-7093.04
-7097.49
-7101.25
-7104.98
-7109.1
-7113.89
-7119.56
-7126.32
-7134.34
-7143.78
-7154.8
-7167.57
-7182.24
-7198.98
-7217.96
-7239.34
-7263.34
-7290.16
-7320.08
-7353.38
-7390.42
-7431.6
-7477.35
-7528.1
-7584.31
-7646.34
-7714.43
-7788.65
-7868.75
-7954.16
-8043.86
-8136.37
-8229.66
-8321.18
-8407.86
-8486.14
-8551.81
-8599.81
-8623.29
-8611.31
-8542.66
-8368.07
-7953.45
-6875.72
-6850.54
-7839.93
-8183.58
-8319.88
-8381.42
-8412.99
-8431.7
-8444.91
-8456.21
-8467.55
-8480.12
-8494.77
-8512.17
-8532.89
-8557.45
-8586.39
-8620.17
-8659.3
-8704.24
-8755.47
-8813.47
-8878.75
-8951.83
-9033.32
-9123.87
-9224.24
-9335.3
-9457.99
-9593.31
-9742.29
-9905.83
-10084.6
-10279.1
-10488.8
-10712.9
-10949.4
-11195.1
-11445.6
-11695.2
-11936.8
-12162.2
-12361.4
-12523.4
-12634
-12674.4
-12613.5
-12391.9
-11878.7
-10756.3
-8216.83
-7000.04
-8183.49
-8631.41
-8821.99
-8912.72
-8961.19
-8990.92
-9012.58
-9031.58
-9050.95
-9072.64
-9098.02
-9128.23
-9164.25
-9207
-9257.35
-9316.18
-9384.32
-9462.6
-9551.86
-9652.91
-9766.6
-9893.85
-10035.6
-10193
-10367.3
-10559.8
-10771.9
-11005.4
-11261.6
-11542
-11847.5
-12178.4
-12534
-12912.3
-13309.8
-13720.9
-14138.2
-14552
-14950.4
-15319.3
-15642.9
-15902.2
-16074.5
-16128.1
-16012.3
-15631.5
-14782.4
-13003.1
-9228.11
-7052.95
-8319.57
-8821.67
-9045.41
-9156.51
-9218.27
-9257.67
-9287.53
-9314.58
-9342.77
-9374.7
-9412.31
-9457.18
-9510.77
-9574.44
-9649.51
-9737.27
-9839.01
-9955.99
-10089.5
-10240.7
-10411
-10601.8
-10814.5
-11050.8
-11312.7
-11602
-11921.2
-12272.4
-12658.1
-13080
-13539.7
-14037.4
-14572.1
-15140.6
-15737.5
-16354.6
-16980.4
-17600.3
-18196.6
-18748.4
-19231.8
-19619.1
-19876.5
-19958
-19790.6
-19238.6
-18020.6
-15517
-10372.5
-7075.24
-8380.66
-8911.71
-9155.67
-9280.92
-9353.16
-9401.24
-9439.31
-9475.08
-9513.24
-9557.04
-9608.96
-9671.13
-9745.52
-9834.01
-9938.48
-10060.7
-10202.6
-10366
-10552.6
-10764.4
-11003.3
-11271.3
-11570.7
-11904
-12274
-12683.7
-13136.6
-13636.1
-14185.6
-14788.1
-15445.6
-16158.7
-16926
-17743
-18602.1
-19491.2
-20394.1
-21289.7
-22152.5
-22952.6
-23655.8
-24222.6
-24605.3
-24740.1
-24526.1
-23778.5
-22118.5
-18723.7
-11852.5
-7086.08
-8411.47
-8958.95
-9215.81
-9351.3
-9432.24
-9488.53
-9535.19
-9580.69
-9630.42
-9688.21
-9757.17
-9840.04
-9939.4
-10057.8
-10197.7
-10361.7
-10552.3
-10772.1
-11023.6
-11309.6
-11632.7
-11996.1
-12403.1
-12857.4
-13363.1
-13924.8
-14547.5
-15236.3
-15996.4
-16832.1
-17746.8
-18741.6
-19814.5
-20959.7
-22166.5
-23418.3
-24692.1
-25958.5
-27181.6
-28319.6
-29324.3
-30140.9
-30703.8
-30925.5
-30669.8
-29688.9
-27475.8
-22939.4
-13813.5
-7092.09
-8428.95
-8986.66
-9252.48
-9396.06
-9484.83
-9549.38
-9605.4
-9662.03
-9725.31
-9799.73
-9889.07
-9996.8
-10126.2
-10280.7
-10463.6
-10678.2
-10928
-11216.6
-11547.5
-11924.4
-12351.4
-12832.8
-13373.5
-13978.7
-14654.6
-15407.8
-16245.7
-17175.8
-18205.5
-19341.5
-20588.7
-21949.2
-23420.7
-24995.5
-26659.2
-28388.9
-30153.4
-31912
-33615.2
-35205.2
-36616
-37772.3
-38585.1
-38936.4
-38644.7
-37379.7
-34467.5
-28461
-16394.5
-7095.92
-8440.3
-9005.23
-9278.05
-9428.73
-9525.17
-9598.49
-9665.02
-9734.54
-9813.75
-9907.9
-10021.6
-10159
-10324.5
-10522.3
-10756.9
-11032.5
-11354
-11725.9
-12153.2
-12641.1
-13195.1
-13821.4
-14526.8
-15318.9
-16206.4
-17198.8
-18306.6
-19540.6
-20911.6
-22429.1
-24100.5
-25929.1
-27912.6
-30040.9
-32294.9
-34644
-37045.8
-39445.5
-41775.9
-43958.5
-45903.9
-47510.9
-48659.6
-49193.8
-48873.1
-47262.1
-43471.1
-35590.4
-19738.8
-7098.77
-8448.88
-9019.67
-9298.68
-9456.24
-9560.69
-9643.7
-9722.19
-9806.64
-9904.52
-10021.9
-10164.3
-10337
-10545.3
-10794.6
-11090.7
-11439.2
-11846.3
-12318.1
-12861.3
-13482.9
-14190.5
-14992.5
-15898.4
-16918.9
-18065.9
-19352.8
-20794.3
-22405.5
-24201.4
-26195.8
-28399.1
-30816.6
-33445.8
-36274.3
-39276.6
-42412.7
-45626.2
-48844.1
-51976.8
-54919.6
-57553.5
-59743.8
-61332.4
-62113.9
-61774.5
-59745.8
-54864.6
-44631.6
-23992.3
-7101.23
-8456.36
-9032.54
-9317.63
-9482.32
-9595.48
-9689.33
-9781.48
-9883.16
-10002.7
-10147.2
-10323.1
-10536.9
-10795.3
-11105.2
-11473.5
-11907.9
-12415.9
-13005.9
-13686.4
-14466.9
-15357.4
-16369.4
-17515.6
-18810.6
-20270.8
-21914.5
-23761.4
-25832.5
-28148.4
-30728
-33586
-36730.3
-40158.5
-43855
-47787.2
-51903.2
-56129.2
-60369.7
-64507.3
-68404.4
-71905.2
-74833.4
-76983.2
-78088.7
-77745.1
-75219.3
-69008.1
-55875.8
-29295.7
-7103.59
-8463.62
-9045.21
-9336.61
-9509
-9631.77
-9737.81
-9845.45
-9966.8
-10111.2
-10286.7
-10501.2
-10762.5
-11078.8
-11458.4
-11910.5
-12444.2
-13069.6
-13797
-14637.6
-15603.7
-16708.5
-17967.2
-19396.6
-21016.2
-22847.7
-24915.6
-27246.4
-29867.9
-32808.1
-36092.1
-39740.3
-43763.7
-48160.7
-52911.8
-57975.9
-63286.5
-68749.2
-74240.8
-79609.8
-84679.1
-89247.3
-93087.8
-95936.6
-97454.2
-97125.6
-94017.8
-86213.8
-69577.5
-35773.1
-7106.02
-8471.1
-9058.37
-9356.54
-9537.33
-9670.73
-9790.36
-9915.39
-10058.9
-10231.3
-10441.9
-10700.1
-11015.2
-11397.1
-11856.1
-12403.4
-13050.4
-13809.6
-14694.2
-15718.2
-16897.4
-18248.9
-19792.2
-21549.4
-23545.5
-25809.1
-28372
-31269.1
-34536.7
-38211.3
-42326.5
-46908.9
-51974.3
-57521.5
-63527
-69939.7
-76676.1
-83616.9
-90606
-97451.6
-103929
-109782
-114725
-118423
-120451
-120162
-116385
-106711
-85924.5
-43517.4
-7108.57
-8479
-9072.34
-9377.82
-9567.75
-9712.82
-9847.42
-9991.67
-10159.7
-10363.2
-10612.9
-10919.6
-11294.6
-11749.6
-12297.2
-12950.8
-13724.7
-14633.9
-15694.8
-16925.2
-18344.5
-19974.7
-21840.2
-23969.2
-26393.7
-29150.3
-32279.6
-35826
-39836.5
-44357.7
-49432.9
-55097.1
-61371
-68254.7
-75720.3
-83705.1
-92105.8
-100774
-109516
-118093
-126223
-133588
-139831
-144538
-147180
-146959
-142428
-130602
-105005
-52574.5
-7111.28
-8487.39
-9087.2
-9400.52
-9600.3
-9757.98
-9908.83
-10074
-10268.7
-10506
-10798.3
-11158
-11598.4
-12133.5
-12778.1
-13548.3
-14461.2
-15535.3
-16790.4
-18248.3
-19933.1
-21871.6
-24094.6
-26637.1
-29539.3
-32846.6
-36610.2
-40885.8
-45732.3
-51208.4
-57368.7
-64257.7
-71902.5
-80304.8
-89431.8
-99207.9
-109507
-120149
-130896
-141455
-151480
-160583
-168324
-174199
-177561
-177440
-172077
-157828
-126777
-62926.8
-7114.13
-8496.22
-9102.85
-9424.46
-9634.69
-9805.78
-9973.93
-10161.3
-10384.6
-10658
-10995.8
-11412.3
-11922.7
-12543.5
-13292.2
-14187.6
-15250.2
-16501.8
-17966.3
-19669.9
-21641.7
-23914.6
-26525.9
-29518.4
-32941.5
-36850.9
-41309.5
-46385.7
-52152
-58680.7
-66039.6
-74283.8
-83447.9
-93535.5
-104509
-116278
-128692
-141535
-154520
-167294
-179441
-190491
-199916
-207107
-211291
-211305
-205042
-188127
-151032
-74479.1
-7117.08
-8505.36
-9119.07
-9449.3
-9670.41
-9855.48
-10041.7
-10252.3
-10505.3
-10816.6
-11202
-11677.9
-12261.7
-12972.4
-13830.3
-14857.3
-16077.3
-17515.9
-19201.2
-21164.3
-23439.9
-26067
-29090.5
-32561.8
-36539.9
-41092.4
-46294.6
-52229.2
-58983.5
-66645.2
-75295.9
-85003.2
-95809.9
-107722
-120696
-134628
-149340
-164575
-179996
-195183
-209644
-222820
-234088
-242725
-247821
-248004
-240789
-221009
-177384
-87047.9
-7120.08
-8514.64
-9135.55
-9474.54
-9706.72
-9906.03
-10110.6
-10345
-10628.4
-10978.3
-11412.4
-11949
-12608
-13410.9
-14380.7
-15542.8
-16924.4
-18555.3
-20468
-22698.7
-25287.8
-28281.3
-31731.7
-35699.7
-40255
-45477
-51455
-58286.7
-66075.3
-74924.8
-84932.2
-96178.1
-108714
-122549
-137635
-153851
-170992
-188759
-206759
-224504
-241420
-256857
-270085
-280267
-286344
-286727
-278530
-255751
-205251
-100357
-7123.05
-8523.84
-9151.88
-9499.57
-9742.75
-9956.21
-10179.1
-10437.1
-10750.7
-11139.1
-11621.7
-12218.9
-12952.9
-13847.7
-14929.4
-16226.5
-17769.9
-19593.4
-21734.1
-24233.5
-27137.8
-30500.1
-34380.9
-38850.5
-43989.3
-49889.6
-56654.8
-64398.1
-73239.4
-83299.6
-94691.5
-107509
-121815
-137619
-154869
-173428
-193062
-213431
-234083
-254460
-273905
-291671
-306924
-318707
-325807
-326413
-317231
-291399
-233868
-114040
-7125.91
-8532.71
-9167.63
-9523.7
-9777.5
-10004.6
-10245.2
-10526
-10868.9
-11294.5
-11824
-12479.9
-13286.5
-14270.4
-15460.7
-16888.8
-18589.4
-20600.2
-22962.9
-25723.9
-28935.8
-32658.2
-36960.1
-41920.8
-47632
-54198.4
-61737.6
-70378.7
-80258.1
-91513.5
-104274
-118648
-134705
-152462
-171859
-192745
-214856
-237811
-261102
-284100
-306064
-326153
-343429
-356813
-364944
-365788
-355647
-326804
-262310
-127654
-7128.57
-8540.97
-9182.31
-9546.21
-9809.91
-10049.8
-10306.9
-10608.9
-10979.2
-11439.6
-12013
-12723.8
-13598.4
-14665.9
-15957.8
-17508.9
-19357.1
-21543.8
-24115.1
-27122.5
-30623.9
-34686
-39385.2
-44810.1
-51062.9
-58260.4
-66533.9
-76027.6
-86894
-99287.1
-113351
-129208
-146938
-166560
-188009
-211120
-235602
-261034
-286853
-312363
-336743
-359064
-378283
-393209
-402338
-403423
-392379
-360675
-289537
-140697
-7130.96
-8548.37
-9195.45
-9566.36
-9838.93
-10090.2
-10362.1
-10683.3
-11078
-11569.7
-12182.5
-12942.6
-13878.2
-15020.7
-16404.1
-18065.8
-20046.7
-22391.9
-25151.2
-28380.7
-32143.6
-36512.5
-41571
-47416.1
-54159.7
-61929.6
-70869.9
-81138.5
-92902.8
-106332
-121585
-138794
-158051
-179375
-202700
-227845
-254496
-282194
-310328
-338139
-364735
-389101
-410105
-426449
-436500
-437815
-425958
-391649
-314448
-152639
-7132.98
-8554.64
-9206.59
-9583.45
-9863.55
-10124.6
-10409
-10746.4
-11162
-11680.2
-12326.5
-13128.4
-14116
-15322.4
-16783.6
-18539.5
-20633.5
-23113.6
-26033.3
-29452.4
-33438.6
-38069.7
-43435.7
-49640.5
-56804.4
-65065.2
-74577.7
-85512
-98048.2
-112368
-128644
-147019
-167591
-190384
-215327
-242227
-270751
-300407
-330541
-360341
-388852
-414989
-437538
-455112
-465964
-467485
-454935
-418388
-335961
-162959
-7134.57
-8559.57
-9215.34
-9596.86
-9882.88
-10151.5
-10445.8
-10796
-11227.9
-11767
-12439.6
-13274.5
-14303
-15559.5
-17082
-18912
-21095.1
-23681.7
-26727.8
-30296.4
-34458.8
-39297
-44905.8
-51395
-58891.6
-67541
-77506.8
-88968.6
-102117
-117144
-134232
-153533
-175150
-199111
-225340
-253638
-283651
-314866
-346592
-377978
-408015
-435563
-459345
-477901
-489394
-491084
-477986
-439664
-353086
-171178
-7135.67
-8562.96
-9221.37
-9606.1
-9896.19
-10170.1
-10471.1
-10830.1
-11273.3
-11826.8
-12517.6
-13375.2
-14431.8
-15723.1
-17287.8
-19169
-21413.6
-24073.7
-27207.1
-30879
-35163.2
-40144.7
-45921.5
-52607.6
-60334.5
-69253.2
-79533.2
-91361
-104934
-120452
-138104
-158048
-180391
-205163
-232287
-261556
-292607
-324905
-357740
-390228
-421328
-449858
-474499
-493739
-505681
-507490
-494015
-454460
-364998
-176896
-7136.22
-8564.69
-9224.44
-9610.82
-9902.98
-10179.5
-10484.1
-10847.5
-11296.5
-11857.3
-12557.3
-13426.5
-14497.6
-15806.5
-17392.8
-19300.1
-21576.1
-24273.7
-27451.8
-31176.5
-35523
-40577.6
-46440.4
-53227.1
-61071.9
-70128.4
-80569.2
-92584.4
-106375
-122145
-140085
-160359
-183075
-208262
-235845
-265612
-297194
-330048
-363452
-396506
-428151
-457186
-482267
-501859
-514031
-515902
-502234
-462049
-371107
-179830
-7136.22
-8564.69
-9224.44
-9610.82
-9902.98
-10179.5
-10484.1
-10847.5
-11296.5
-11857.3
-12557.3
-13426.5
-14497.6
-15806.5
-17392.8
-19300.1
-21576.1
-24273.7
-27451.8
-31176.5
-35523
-40577.6
-46440.4
-53227.1
-61071.9
-70128.4
-80569.2
-92584.4
-106375
-122145
-140085
-160359
-183075
-208262
-235845
-265612
-297194
-330048
-363452
-396506
-428151
-457186
-482267
-501859
-514031
-515902
-502234
-462049
-371107
-179830
-7135.67
-8562.96
-9221.37
-9606.1
-9896.19
-10170.1
-10471.1
-10830.1
-11273.3
-11826.8
-12517.6
-13375.2
-14431.8
-15723.1
-17287.8
-19169
-21413.6
-24073.7
-27207.1
-30879
-35163.2
-40144.7
-45921.5
-52607.6
-60334.5
-69253.2
-79533.2
-91361
-104934
-120452
-138104
-158048
-180392
-205163
-232288
-261556
-292607
-324905
-357740
-390228
-421328
-449858
-474499
-493739
-505681
-507490
-494015
-454461
-364998
-176896
-7134.57
-8559.57
-9215.34
-9596.86
-9882.88
-10151.5
-10445.8
-10796
-11227.9
-11767
-12439.6
-13274.5
-14303
-15559.5
-17082
-18912
-21095.1
-23681.7
-26727.8
-30296.4
-34458.8
-39297
-44905.8
-51395
-58891.6
-67541
-77506.8
-88968.6
-102117
-117144
-134232
-153533
-175150
-199111
-225340
-253638
-283652
-314866
-346592
-377978
-408015
-435563
-459345
-477901
-489394
-491084
-477986
-439664
-353086
-171178
-7132.98
-8554.64
-9206.59
-9583.45
-9863.55
-10124.6
-10409
-10746.4
-11162
-11680.2
-12326.5
-13128.4
-14116
-15322.4
-16783.6
-18539.5
-20633.5
-23113.6
-26033.3
-29452.4
-33438.6
-38069.7
-43435.7
-49640.5
-56804.5
-65065.2
-74577.8
-85512
-98048.2
-112368
-128644
-147019
-167591
-190384
-215327
-242227
-270751
-300407
-330541
-360341
-388853
-414989
-437538
-455112
-465964
-467485
-454935
-418388
-335961
-162959
-7130.96
-8548.37
-9195.45
-9566.36
-9838.93
-10090.2
-10362.1
-10683.3
-11078
-11569.7
-12182.5
-12942.6
-13878.2
-15020.7
-16404.1
-18065.8
-20046.7
-22391.9
-25151.2
-28380.7
-32143.6
-36512.5
-41571
-47416.1
-54159.7
-61929.6
-70869.9
-81138.5
-92902.9
-106332
-121585
-138795
-158051
-179375
-202700
-227845
-254496
-282194
-310328
-338140
-364735
-389101
-410105
-426449
-436500
-437815
-425958
-391650
-314448
-152639
-7128.57
-8540.97
-9182.31
-9546.21
-9809.91
-10049.8
-10306.9
-10608.9
-10979.2
-11439.6
-12013
-12723.8
-13598.4
-14665.9
-15957.8
-17508.9
-19357.1
-21543.8
-24115.1
-27122.4
-30623.9
-34686
-39385.2
-44810.1
-51062.9
-58260.4
-66533.9
-76027.6
-86894.1
-99287.1
-113352
-129209
-146938
-166560
-188009
-211120
-235602
-261034
-286853
-312363
-336744
-359064
-378283
-393209
-402338
-403423
-392379
-360675
-289536
-140696
-7125.91
-8532.71
-9167.63
-9523.71
-9777.5
-10004.6
-10245.2
-10526
-10868.9
-11294.5
-11824
-12479.9
-13286.5
-14270.4
-15460.6
-16888.8
-18589.4
-20600.2
-22962.9
-25723.9
-28935.8
-32658.2
-36960.1
-41920.8
-47632
-54198.4
-61737.6
-70378.7
-80258.2
-91513.6
-104274
-118648
-134705
-152462
-171859
-192745
-214856
-237811
-261103
-284100
-306064
-326154
-343429
-356813
-364944
-365788
-355647
-326805
-262310
-127654
-7123.05
-8523.84
-9151.88
-9499.57
-9742.75
-9956.21
-10179.1
-10437.1
-10750.7
-11139.1
-11621.7
-12218.9
-12952.9
-13847.7
-14929.4
-16226.5
-17769.9
-19593.4
-21734.1
-24233.4
-27137.8
-30500.1
-34380.9
-38850.5
-43989.4
-49889.6
-56654.8
-64398.1
-73239.5
-83299.6
-94691.6
-107510
-121815
-137619
-154869
-173428
-193062
-213431
-234084
-254461
-273905
-291671
-306924
-318707
-325807
-326413
-317231
-291400
-233868
-114040
-7120.08
-8514.64
-9135.55
-9474.54
-9706.72
-9906.03
-10110.6
-10345
-10628.4
-10978.3
-11412.4
-11949
-12608
-13410.9
-14380.7
-15542.8
-16924.4
-18555.3
-20468
-22698.7
-25287.8
-28281.3
-31731.7
-35699.7
-40255
-45477
-51455
-58286.7
-66075.4
-74924.9
-84932.3
-96178.2
-108714
-122550
-137636
-153851
-170992
-188760
-206760
-224505
-241420
-256857
-270085
-280267
-286345
-286727
-278530
-255751
-205250
-100357
-7117.09
-8505.36
-9119.07
-9449.3
-9670.41
-9855.48
-10041.7
-10252.3
-10505.3
-10816.6
-11202
-11677.9
-12261.7
-12972.4
-13830.3
-14857.3
-16077.3
-17515.9
-19201.2
-21164.3
-23439.9
-26067
-29090.5
-32561.8
-36540
-41092.4
-46294.6
-52229.2
-58983.6
-66645.2
-75296
-85003.3
-95810
-107722
-120696
-134628
-149340
-164576
-179996
-195183
-209644
-222821
-234088
-242726
-247821
-248005
-240789
-221010
-177383
-87047.6
-7114.13
-8496.22
-9102.85
-9424.46
-9634.69
-9805.79
-9973.93
-10161.3
-10384.6
-10658
-10995.8
-11412.3
-11922.7
-12543.5
-13292.2
-14187.6
-15250.2
-16501.8
-17966.3
-19669.9
-21641.7
-23914.6
-26525.9
-29518.4
-32941.5
-36850.9
-41309.5
-46385.8
-52152
-58680.8
-66039.7
-74283.9
-83448
-93535.6
-104509
-116278
-128693
-141536
-154520
-167294
-179441
-190491
-199916
-207107
-211291
-211306
-205042
-188127
-151032
-74478.8
-7111.28
-8487.39
-9087.2
-9400.52
-9600.3
-9757.98
-9908.83
-10074
-10268.7
-10506
-10798.3
-11158
-11598.4
-12133.4
-12778.1
-13548.3
-14461.2
-15535.3
-16790.4
-18248.3
-19933.1
-21871.6
-24094.6
-26637.2
-29539.3
-32846.6
-36610.3
-40885.9
-45732.4
-51208.5
-57368.8
-64257.8
-71902.6
-80304.9
-89431.9
-99208
-109508
-120150
-130896
-141455
-151481
-160583
-168324
-174199
-177561
-177440
-172077
-157828
-126776
-62926.6
-7108.57
-8479
-9072.34
-9377.82
-9567.75
-9712.82
-9847.42
-9991.67
-10159.7
-10363.2
-10612.9
-10919.6
-11294.6
-11749.6
-12297.2
-12950.8
-13724.7
-14633.9
-15694.8
-16925.2
-18344.6
-19974.7
-21840.2
-23969.2
-26393.8
-29150.3
-32279.6
-35826.1
-39836.5
-44357.8
-49433
-55097.2
-61371.1
-68254.8
-75720.4
-83705.2
-92105.9
-100774
-109516
-118093
-126223
-133588
-139831
-144538
-147180
-146959
-142428
-130602
-105005
-52574.3
-7106.02
-8471.1
-9058.37
-9356.54
-9537.33
-9670.73
-9790.36
-9915.39
-10058.9
-10231.3
-10441.9
-10700.1
-11015.2
-11397.1
-11856.1
-12403.4
-13050.4
-13809.6
-14694.2
-15718.2
-16897.4
-18248.9
-19792.2
-21549.4
-23545.5
-25809.1
-28372.1
-31269.1
-34536.7
-38211.4
-42326.5
-46909
-51974.4
-57521.6
-63527.1
-69939.9
-76676.3
-83617
-90606.2
-97451.8
-103929
-109782
-114725
-118423
-120451
-120162
-116385
-106711
-85924.3
-43517.3
-7103.59
-8463.62
-9045.21
-9336.61
-9509
-9631.77
-9737.81
-9845.45
-9966.8
-10111.2
-10286.7
-10501.2
-10762.5
-11078.8
-11458.4
-11910.5
-12444.2
-13069.6
-13797
-14637.6
-15603.7
-16708.5
-17967.2
-19396.7
-21016.2
-22847.8
-24915.6
-27246.4
-29868
-32808.1
-36092.2
-39740.4
-43763.8
-48160.8
-52911.9
-57976
-63286.6
-68749.3
-74240.9
-79609.9
-84679.2
-89247.4
-93087.9
-95936.7
-97454.3
-97125.6
-94017.8
-86213.9
-69577.4
-35772.9
-7101.23
-8456.36
-9032.54
-9317.63
-9482.33
-9595.48
-9689.33
-9781.48
-9883.16
-10002.7
-10147.2
-10323.1
-10536.9
-10795.3
-11105.2
-11473.5
-11907.9
-12415.9
-13005.9
-13686.4
-14466.9
-15357.4
-16369.4
-17515.6
-18810.7
-20270.9
-21914.5
-23761.4
-25832.5
-28148.5
-30728.1
-33586.1
-36730.3
-40158.6
-43855.1
-47787.4
-51903.3
-56129.3
-60369.8
-64507.4
-68404.5
-71905.2
-74833.4
-76983.3
-78088.8
-77745.1
-75219.3
-69008.2
-55875.7
-29295.6
-7098.77
-8448.88
-9019.67
-9298.69
-9456.24
-9560.69
-9643.7
-9722.19
-9806.64
-9904.52
-10021.9
-10164.3
-10337
-10545.3
-10794.6
-11090.7
-11439.2
-11846.3
-12318.1
-12861.3
-13482.9
-14190.5
-14992.6
-15898.5
-16918.9
-18065.9
-19352.9
-20794.3
-22405.5
-24201.5
-26195.8
-28399.1
-30816.6
-33445.9
-36274.4
-39276.7
-42412.8
-45626.3
-48844.2
-51976.9
-54919.7
-57553.6
-59743.8
-61332.4
-62113.9
-61774.5
-59745.8
-54864.7
-44631.5
-23992.2
-7095.92
-8440.3
-9005.23
-9278.05
-9428.73
-9525.17
-9598.49
-9665.03
-9734.54
-9813.75
-9907.9
-10021.6
-10159
-10324.5
-10522.3
-10756.9
-11032.5
-11354
-11725.9
-12153.2
-12641.1
-13195.1
-13821.4
-14526.8
-15318.9
-16206.4
-17198.9
-18306.6
-19540.7
-20911.6
-22429.2
-24100.6
-25929.2
-27912.6
-30041
-32295
-34644.1
-37045.9
-39445.6
-41776
-43958.5
-45904
-47510.9
-48659.7
-49193.8
-48873.1
-47262
-43471.1
-35590.3
-19738.7
-7092.09
-8428.95
-8986.67
-9252.49
-9396.06
-9484.84
-9549.38
-9605.4
-9662.04
-9725.31
-9799.73
-9889.08
-9996.8
-10126.2
-10280.7
-10463.6
-10678.2
-10928.1
-11216.6
-11547.5
-11924.4
-12351.4
-12832.8
-13373.5
-13978.7
-14654.6
-15407.9
-16245.7
-17175.8
-18205.5
-19341.6
-20588.8
-21949.2
-23420.7
-24995.6
-26659.2
-28389
-30153.4
-31912
-33615.3
-35205.3
-36616
-37772.4
-38585.1
-38936.4
-38644.7
-37379.6
-34467.5
-28460.9
-16394.4
-7086.08
-8411.47
-8958.95
-9215.82
-9351.31
-9432.25
-9488.53
-9535.19
-9580.69
-9630.42
-9688.21
-9757.17
-9840.04
-9939.4
-10057.8
-10197.7
-10361.7
-10552.3
-10772.1
-11023.6
-11309.6
-11632.7
-11996.2
-12403.2
-12857.4
-13363.1
-13924.8
-14547.5
-15236.3
-15996.4
-16832.2
-17746.9
-18741.6
-19814.5
-20959.8
-22166.6
-23418.3
-24692.1
-25958.5
-27181.7
-28319.6
-29324.3
-30140.9
-30703.8
-30925.5
-30669.8
-29688.9
-27475.8
-22939.3
-13813.4
-7075.24
-8380.66
-8911.71
-9155.68
-9280.92
-9353.16
-9401.24
-9439.31
-9475.08
-9513.25
-9557.04
-9608.96
-9671.13
-9745.52
-9834.02
-9938.48
-10060.7
-10202.6
-10366
-10552.6
-10764.4
-11003.3
-11271.3
-11570.7
-11904
-12274
-12683.8
-13136.7
-13636.2
-14185.7
-14788.1
-15445.6
-16158.7
-16926
-17743.1
-18602.1
-19491.2
-20394.1
-21289.7
-22152.5
-22952.7
-23655.8
-24222.6
-24605.3
-24740.1
-24526
-23778.5
-22118.5
-18723.7
-11852.5
-7052.95
-8319.57
-8821.67
-9045.41
-9156.52
-9218.27
-9257.68
-9287.53
-9314.59
-9342.77
-9374.7
-9412.31
-9457.18
-9510.78
-9574.44
-9649.51
-9737.28
-9839.02
-9956
-10089.5
-10240.7
-10411
-10601.8
-10814.5
-11050.9
-11312.7
-11602
-11921.2
-12272.5
-12658.1
-13080.1
-13539.7
-14037.5
-14572.1
-15140.6
-15737.6
-16354.6
-16980.4
-17600.3
-18196.6
-18748.4
-19231.8
-19619.1
-19876.5
-19958
-19790.6
-19238.6
-18020.6
-15516.9
-10372.5
-7000.04
-8183.49
-8631.41
-8821.99
-8912.72
-8961.2
-8990.92
-9012.58
-9031.58
-9050.95
-9072.64
-9098.03
-9128.24
-9164.25
-9207
-9257.35
-9316.18
-9384.32
-9462.6
-9551.86
-9652.91
-9766.61
-9893.86
-10035.6
-10193
-10367.3
-10559.8
-10772
-11005.4
-11261.6
-11542
-11847.5
-12178.4
-12534
-12912.3
-13309.8
-13720.9
-14138.3
-14552
-14950.4
-15319.4
-15642.9
-15902.2
-16074.5
-16128.1
-16012.3
-15631.5
-14782.5
-13003.1
-9228.09
-6850.54
-7839.93
-8183.58
-8319.88
-8381.42
-8412.99
-8431.7
-8444.91
-8456.21
-8467.55
-8480.12
-8494.77
-8512.17
-8532.89
-8557.46
-8586.39
-8620.17
-8659.3
-8704.24
-8755.47
-8813.47
-8878.75
-8951.84
-9033.32
-9123.87
-9224.24
-9335.3
-9457.99
-9593.32
-9742.29
-9905.84
-10084.7
-10279.1
-10488.8
-10712.9
-10949.4
-11195.1
-11445.6
-11695.2
-11936.8
-12162.2
-12361.4
-12523.3
-12634
-12674.4
-12613.5
-12391.9
-11878.7
-10756.3
-8216.81
-6333.93
-6850.54
-7000.08
-7053.07
-7075.51
-7086.62
-7093.04
-7097.49
-7101.25
-7104.98
-7109.1
-7113.89
-7119.56
-7126.32
-7134.34
-7143.78
-7154.8
-7167.57
-7182.24
-7198.98
-7217.96
-7239.34
-7263.34
-7290.16
-7320.08
-7353.38
-7390.42
-7431.6
-7477.35
-7528.1
-7584.31
-7646.34
-7714.43
-7788.64
-7868.74
-7954.15
-8043.86
-8136.36
-8229.65
-8321.17
-8407.85
-8486.12
-8551.8
-8599.8
-8623.27
-8611.29
-8542.64
-8368.06
-7953.43
-6875.71
-1399.55
-2223.41
-2513.28
-2632.93
-2689.42
-2719.55
-2737.97
-2751.24
-2762.7
-2774.21
-2786.96
-2801.77
-2819.28
-2840.06
-2864.59
-2893.35
-2926.77
-2965.24
-3009.14
-3058.8
-3114.52
-3176.59
-3245.27
-3320.81
-3403.47
-3493.53
-3591.3
-3697.1
-3811.24
-3934.03
-4065.65
-4206.12
-4355.2
-4512.25
-4676.12
-4845.05
-5016.52
-5187.23
-5353.05
-5509
-5649.23
-5766.97
-5854.19
-5900.63
-5891.63
-5802.91
-5588.32
-5149.88
-4258.4
-2324.06
-2223.39
-3920.25
-4620.73
-4937.31
-5094.44
-5180.78
-5234.62
-5274.08
-5308.6
-5343.59
-5382.5
-5427.8
-5481.45
-5545.12
-5620.34
-5708.52
-5810.99
-5928.95
-6063.54
-6215.74
-6386.46
-6576.49
-6786.53
-7017.24
-7269.25
-7543.17
-7839.64
-8159.25
-8502.56
-8869.91
-9261.33
-9676.27
-10113.4
-10570.1
-11042.5
-11524.9
-12009.6
-12486.7
-12944.3
-13368
-13741.6
-14046.1
-14258.9
-14351.2
-14280.9
-13978.1
-13311.3
-12014
-9523.83
-4669.97
-2513.15
-4620.46
-5562.48
-6014.95
-6249.88
-6383.64
-6469.7
-6534.62
-6592.75
-6652.58
-6719.7
-6798.17
-6891.31
-7001.98
-7132.81
-7286.26
-7464.64
-7670.08
-7904.54
-8169.78
-8467.34
-8798.6
-9164.76
-9566.89
-10006
-10483
-10998.9
-11554.4
-12150.1
-12786.4
-13462.9
-14178.1
-14929.2
-15711.6
-16517.8
-17337.8
-18158.1
-18961.7
-19728.2
-20433.3
-21049.6
-21545.3
-21882.9
-22014.3
-21869.6
-21333.2
-20191.7
-18026.9
-14006.1
-6563.19
-2632.55
-4936.35
-6013.96
-6553.91
-6845.17
-7017.13
-7131.95
-7221.81
-7304.75
-7391.86
-7490.66
-7606.85
-7745.13
-7909.71
-8104.49
-8333.13
-8599.12
-8905.68
-9255.82
-9652.23
-10097.3
-10593.3
-11142
-11745.1
-12404.3
-13121
-13896.7
-14732.6
-15629.7
-16588.4
-17608
-18686.2
-19818.8
-20998.2
-22213.4
-23449
-24684.3
-25893.9
-27046.7
-28106.6
-29032.3
-29776.7
-30284.1
-30484
-30274.8
-29489.9
-27826.3
-24701.3
-18989.3
-8683.53
-2688.56
-5092.09
-6246.76
-6842.57
-7174.24
-7377.1
-7518.14
-7633.18
-7743.06
-7861.05
-7996.53
-8156.86
-8348.31
-8576.6
-8847.13
-9165.04
-9535.26
-9962.42
-10450.9
-11004.5
-11627
-12321.6
-13091.3
-13938.8
-14866.8
-15877.7
-16974
-18157.9
-19431.2
-20794.8
-22248
-23788.1
-25409
-27100.2
-28846
-30624.2
-32405.4
-34152.7
-35821.7
-37360.3
-38709.5
-39801.8
-40558.9
-40881.5
-40629.1
-39573.1
-37301.2
-33026.7
-25250.7
-11380.5
-2717.89
-5176.06
-6376.71
-7009.54
-7371.38
-7600.44
-7766.57
-7908.13
-8048.15
-8201.89
-8380.61
-8593.42
-8848.4
-9153.07
-9514.65
-9940.1
-10436.2
-11009.3
-11665.5
-12410.5
-13249.5
-14187.5
-15229
-16378.3
-17639.7
-19017.5
-20515.8
-22138.4
-23888.7
-25768.7
-27778.6
-29915
-32170.1
-34530
-36973.1
-39468.5
-41975.3
-44442
-46806
-48994.6
-50924.7
-52502.7
-53619.6
-54140
-53873.1
-52511.6
-49503
-43795.8
-33396.4
-14916.9
-2735.03
-5226.11
-6456.56
-7115.94
-7502.17
-7755.19
-7946.8
-8117.36
-8291.85
-8487.5
-8717.51
-8993.03
-9324.22
-9720.75
-10192.1
-10747.4
-11395.8
-12145.9
-13006.2
-13984.6
-15088.5
-16325.2
-17701.4
-19224
-20899.6
-22735.1
-24737.3
-26912.6
-29267
-31804.6
-34526.6
-37430
-40504.9
-43733.2
-47085.9
-50521.3
-53983.5
-57401.7
-60689.8
-63747.5
-66460.7
-68700.7
-70319.3
-71133.6
-70888.8
-69176.1
-65262.2
-57749.9
-43992.5
-19540.5
-2746.39
-5259.84
-6511.95
-7192.59
-7600.61
-7877.32
-8096.15
-8299.29
-8513.67
-8758.57
-9049.37
-9399.56
-9821.76
-10328.2
-10931.2
-11642.5
-12474.3
-13438
-14545.1
-15806.3
-17232.3
-18833.1
-20618.9
-22599.7
-24785.8
-27187.7
-29816.1
-32681.3
-35793
-39158.5
-42781.3
-46658.5
-50778.8
-55118.8
-59640.4
-64288.2
-68987.1
-73641.3
-78134.7
-82331.2
-86076.3
-89196.3
-91492.3
-92720.5
-92544.2
-90425.9
-85400.4
-75625.1
-57605.8
-25502.6
-2755.07
-5286
-6556.08
-7255.84
-7685.17
-7986.74
-8235.64
-8475.88
-8736.49
-9039.02
-9401.35
-9839.69
-10369.6
-11006.4
-11765.5
-12662.5
-13712.7
-14931.5
-16333.7
-17934.1
-19747.1
-21786.9
-24067.9
-26604.5
-29411.8
-32505.5
-35901.5
-39615.7
-43663
-48055.1
-52799
-57892.9
-63323.7
-69061.9
-75058.5
-81240.7
-87509.3
-93737.5
-99770.5
-105427
-110501
-114762
-117947
-119735
-119687
-117103
-110726
-98149.2
-74799.9
-33056.1
-2762.68
-5309.19
-6595.99
-7314.62
-7766.17
-8094.83
-8377.41
-8659.99
-8973.88
-9343.23
-9788.8
-10329.9
-10985.6
-11774.9
-12717.1
-13831.9
-15139
-16657.9
-18408.4
-20409.8
-22681.5
-25242.8
-28113.6
-31314.2
-34865.9
-38791.2
-43113.3
-47855.1
-53038.6
-58682
-64796.6
-71382.9
-78425.9
-85889.4
-93710.9
-101797
-110018
-118209
-126167
-133655
-140403
-146109
-150430
-152951
-153104
-149991
-141994
-126007
-96109.1
-42442.2
-2770.06
-5331.84
-6635.53
-7373.87
-7849.4
-8207.97
-8528.39
-8858.98
-9233.65
-9679.5
-10220.6
-10879.9
-11680.3
-12645.4
-13798.9
-15165.4
-16769.6
-18636.6
-20791.5
-23259.5
-26066
-29236.8
-32798.6
-36779.2
-41208
-46115.9
-51535.4
-57498.8
-64037.3
-71177.1
-78936.1
-87317.8
-96305.6
-105856
-115890
-126288
-136887
-147474
-157788
-167524
-176333
-183826
-189564
-193016
-193460
-189757
-179851
-159786
-121994
-53871.4
-2777.65
-5355.25
-6676.71
-7436.2
-7937.9
-8329.55
-8692.15
-9076.57
-9519.63
-10051.7
-10700.7
-11493.6
-12458
-13622.2
-15015.5
-16668
-18610.5
-20874.1
-23490.7
-26492.3
-29911.6
-33782.2
-38139.3
-43019.8
-48463
-54510.6
-61206.5
-68594.7
-76717.9
-85612.8
-95305.4
-105804
-117090
-129112
-141772
-154923
-168357
-181806
-194940
-207372
-218662
-228315
-235777
-240379
-241218
-236866
-224753
-199905
-152790
-67498.6
-2785.67
-5380.03
-6720.46
-7502.77
-8032.96
-8460.88
-8869.94
-9313.82
-9832.59
-10460.4
-11229
-12170.5
-13317.2
-14703.3
-16363.9
-18335.6
-20656
-23363.6
-26497.5
-30098.1
-34206.6
-38866
-44121.2
-50020.2
-56614.4
-63958.4
-72109.6
-81126.7
-91066.1
-101978
-113898
-126840
-140785
-155673
-171384
-187738
-204477
-221270
-237706
-253301
-267507
-279709
-289217
-295203
-296552
-291504
-276885
-246543
-188643
-83395.8
-2794.16
-5406.31
-6766.98
-7573.76
-8134.65
-8601.77
-9061.19
-9569.65
-10170.8
-10902.7
-11801.8
-12905.2
-14251.1
-15879.6
-17832.6
-20153.8
-22888.5
-26083.3
-29786.1
-34046.2
-38914.8
-44445.4
-50694.9
-57723.8
-65597.5
-74385.9
-84162.6
-95003.1
-106981
-120160
-134590
-150292
-167248
-185385
-204562
-224560
-245067
-265677
-285887
-305106
-322661
-337800
-349678
-357284
-359264
-353482
-336079
-299558
-229454
-101525
-2803.09
-5433.96
-6815.97
-7648.63
-8242.06
-8750.84
-9263.85
-9841.13
-10530.1
-11373.1
-12411.7
-13688.3
-15247.2
-17135.2
-19401.7
-22098
-25277.7
-28996.5
-33311.8
-38283
-43972.5
-50445.8
-57772.8
-66028.7
-75294.6
-85657.8
-97210.5
-110048
-124261
-139935
-157131
-175880
-196163
-217899
-240922
-264969
-289669
-314532
-338956
-362227
-383534
-401972
-416523
-425976
-428709
-422168
-401737
-358424
-274825
-121714
-2812.34
-5462.59
-6866.74
-7726.27
-8353.55
-8905.71
-9474.61
-10123.7
-10904.4
-11863.6
-13048
-14505.7
-16287.7
-18447.9
-21043
-24133.1
-27780.6
-32050.7
-37011.1
-42732.4
-49288.9
-56759.4
-65228.1
-74786.3
-85532.6
-97573.6
-111022
-125995
-142605
-160955
-181126
-203157
-227032
-252657
-279842
-308277
-337526
-367011
-396019
-423705
-449108
-471156
-488643
-500142
-503740
-496434
-472785
-422180
-324022
-143638
-2821.71
-5491.64
-6918.27
-7805.13
-8466.86
-9063.21
-9689.07
-10411.4
-11285.7
-12363.5
-13696.8
-15339.9
-17350.1
-19788.8
-22720.8
-26214.6
-30342.2
-35178.6
-40802.5
-47296.2
-54746.7
-63246.7
-72896
-83802.8
-96084.8
-109869
-125291
-142490
-161603
-182755
-206043
-231518
-259168
-288887
-320457
-353522
-387576
-421949
-455810
-488177
-517930
-543818
-564442
-578140
-582698
-574636
-547651
-489419
-375959
-166815
-2831
-5520.42
-6969.34
-7883.31
-8579.24
-9219.48
-9901.95
-10697.1
-11664.5
-12860.4
-14342.1
-16169.8
-18407.6
-21124.1