/*--------------------------------*- C++ -*----------------------------------*\
| =========                 |                                                 |
| \\      /  F ield         | OpenFOAM: The Open Source CFD Toolbox           |
|  \\    /   O peration     | Version:  5.x                                   |
|   \\  /    A nd           | Web:      www.OpenFOAM.org                      |
|    \\/     M anipulation  |                                                 |
\*---------------------------------------------------------------------------*/
FoamFile
{
    version     2.0;
    format      ascii;
    class       volScalarField;
    location    "0.1";
    object      gradTx;
}
// * * * * * * * * * * * * * * * * * * * * * * * * * * * * * * * * * * * * * //

dimensions      [0 -1 0 1 0 0 0];

internalField   nonuniform List<scalar> 
25000
(
4508.43
1796
893.714
514.949
329.461
232.98
184.916
166.418
167.544
182.592
208.095
241.827
282.243
328.136
378.416
431.981
487.634
544.055
599.804
653.356
703.152
747.665
785.475
815.342
836.259
847.503
848.65
839.571
820.394
791.45
753.188
706.089
650.571
586.908
515.162
435.132
346.301
247.772
138.121
15.0846
-125.044
-288.552
-486.32
-737.31
-1074.67
-1556.9
-2290.51
-3484.02
-5604.9
-9914.12
8506.53
4279.71
2388.76
1451.15
953.52
685.686
551.286
501.222
508.274
556.402
635.701
739.74
864.004
1004.92
1159.24
1323.61
1494.4
1667.57
1838.71
2003.1
2155.93
2292.47
2408.27
2499.43
2562.71
2595.75
2597.05
2566.04
2502.91
2408.5
2284.07
2131.04
1950.74
1744.2
1511.95
1253.86
969.03
655.512
309.866
-73.8429
-505.96
-1004.73
-1602.4
-2355.53
-3362.28
-4791.64
-6932.9
-10277.7
-15625.3
-23980.6
10580.9
5860.14
3493.68
2216.34
1501.88
1107.59
910.535
843.29
866.567
956.438
1097.79
1280.64
1497.83
1743.57
2012.48
2298.91
2596.65
2898.75
3197.56
3484.94
3752.49
3991.93
4195.48
4356.21
4468.39
4527.7
4531.34
4478.05
4367.95
4202.27
3982.98
3712.43
3392.88
3026.17
2613.43
2154.78
1649.16
1093.89
483.836
-190.302
-945.283
-1811.31
-2842.32
-4133.06
-5846.68
-8258.13
-11818.1
-17228.4
-25429.9
-36924.4
11779
6872.89
4281.12
2814.96
1968.45
1495.97
1265.58
1200.98
1255.85
1401.11
1617.95
1893.66
2218.93
2585.97
2987.26
3414.79
3859.56
4311.41
4759.13
5190.67
5593.62
5955.68
6265.26
6511.98
6687.18
6784.25
6798.79
6728.64
6573.63
6335.21
6015.94
5618.9
5147.1
4602.96
3987.93
3302.1
2543.96
1709.77
792.456
-220.908
-1353.89
-2649.41
-4184.64
-6095.56
-8615.68
-12134.4
-17275.6
-24966.9
-36311.8
-51321.9
12526
7543.57
4846.21
3283.49
2368.11
1859.75
1625.45
1585.82
1691.19
1909.67
2220.21
2608.25
3062.8
3574.29
4133.13
4728.77
5349.16
5980.56
6607.68
7214.04
7782.61
8296.45
8739.53
9097.47
9358.13
9512.17
9553.22
9477.86
9285.35
8977.1
8555.93
8025.29
7388.49
6647.96
5804.8
4858.34
3805.82
2641.72
1356.31
-67.7176
-1661.64
-3482.66
-5634.34
-8300.28
-11797
-16651.9
-23705
-34180.8
-49439.3
-68962.1
13024.5
8010.61
5267.63
3663.72
2723.94
2214.06
2003.09
2011.49
2188.73
2501.81
2928.65
3453.65
4064.59
4750.33
5499.22
6297.99
7131.21
7981.04
8827.54
9649.13
10423.4
11127.9
11741.6
12245.2
12622.6
12861
12951.6
12889.3
12672.3
12301.6
11779.7
11109.9
10295.1
9336.64
8234.38
6985.7
5585.39
4024.99
2290.95
360.514
-1806.78
-4284.87
-7208.66
-10819.4
-15536.6
-22063.7
-31524
-45547.8
-65877.7
-91363.2
13383.7
8359.57
5603.3
3992.39
3059.64
2575.86
2412.87
2492.48
2764.74
3196.83
3766.58
4458.02
5258.11
6154.32
7132.9
8177.66
9269.32
10385.5
11500.7
12587.6
13617.5
14561.7
15392.8
16086.2
16620.6
16979.5
17150.6
17126.8
16904.6
16483.9
15866.2
15053.9
14048.1
12848.2
11451.2
9850.83
8037.93
5999.43
3716.47
1159.26
-1723.83
-5026.89
-8922.88
-13724.5
-19981.1
-28622.8
-41145.6
-59725.8
-86644.4
-119970
13667.5
8644.57
5894.06
4298.62
3396.03
2961.13
2868.68
3042.64
3434.54
4012.67
4755.51
5647.26
6674.44
7823.28
9077.85
10418.7
11822.5
13261.3
14703.7
16115.4
17460.5
18702.8
19808.1
20744.9
21486.2
22010.5
22301.8
22349.7
22148.6
21696.5
20993
20038
18830
17364.6
15633.8
13625.9
11325.5
8712.95
5762.02
2433.85
-1336.92
-5668.84
-10781.4
-17076
-25265.3
-36568.8
-52965.2
-77349
-112729
-156209
13915.1
8900.3
6168.01
4604.04
3749.72
3383.3
3382.54
3673.99
4211.35
4964.7
5913.79
7043.49
8340.16
9788.92
11371.6
13065.3
14841.7
16667.2
18503.3
20307.8
22036.5
23644.8
25090.1
26333.3
27340.6
28084.6
28544.5
28706
28560.4
28102.6
27329.4
26236.9
24818.9
23065.1
20960.3
18484.7
15614
12319.3
8564.59
4299.4
-558.542
-6157.45
-12773.5
-20916.7
-31503.2
-46115.9
-67346.6
-99012.6
-145079
-201469
14150.8
9148.96
6443.92
4923.82
4132.91
3852.55
3963.65
4395.71
5105.19
6064.5
7255.23
8663.33
10275.3
12075.3
14042.7
16150.9
18366.4
20648.8
22951.8
25224.3
27412.6
29462.6
31322.2
32943.4
34284.5
35311.2
35997
36322.8
36275.5
35846.2
35027
33808.6
32178
30116.3
27598.5
24593.4
21064.5
16970.6
12262.7
6875.88
707.168
-6427.25
-14871.6
-25267.9
-38780.2
-57440
-84601.7
-125243
-184552
-257033
14389.5
9404.32
6733.7
5267.79
4553.54
4375.43
4617.71
5213.27
6121.8
7318.58
8787.55
10516.1
12491.3
14696.2
17107.9
19695.6
22420.2
25233.9
28081.6
30902.3
33631.9
36205.4
38559.9
40637.7
42387.8
43768.1
44745.4
45294.5
45397.3
45039
44205.8
42881
41042
38658.7
35692.5
32097.3
27820.7
22805.2
16985.8
10279.1
2557.56
-6404.87
-17033
-30125.6
-47144.8
-70663.6
-104966
-156455
-231849
-323979
14639.7
9674.23
7044.05
5641.27
5015.55
4954.67
5346.5
6127.71
7261.72
8727.2
10510.9
12602.1
14988.4
17652.4
20568.5
23701.7
27006.5
30427.3
33899.3
37351
40706.2
43888.2
46822.4
49439.9
51679.6
53490.4
54831.3
55670.2
55982.2
55745.8
54939.1
53535.6
51500.5
48789
45345.1
41103.7
35992.1
29932.7
22839.9
14608.6
5081.75
-6015.66
-19202.2
-35459.8
-56600.6
-85839.3
-128568
-192903
-287431
-403045
14905.4
9962.17
7377.59
6045.75
5519.16
5589.1
6147.41
7134.99
8519.4
10283.2
12416.4
14910.5
17754.2
20929.3
24407.8
28150.2
32104.5
36206.3
40380.8
44544.6
48609.2
52484.7
56083.7
59325.3
62137.2
64458.5
66239.2
67439.3
68025.9
67969.1
67236.9
65790.5
63580
60542.2
56599.6
51663.5
45636.5
38416
29892.1
19933.3
8348.95
-5192.25
-21315.6
-41212.8
-67099.3
-102933
-155398
-234627
-351426
-494497
15187.1
10268.3
7733.64
6479.36
6060.99
6273.59
7013.29
8225.57
9882.62
11971.3
14485.3
17418.7
20761.5
24495
28588.8
32998.7
37665.8
42517
47466.3
52418.1
57270.4
61919.7
66265
70212.1
73677.1
76588.1
78885.3
80519.8
81449.4
81634.1
81030.1
79583.6
77226.5
73873.1
69420.7
63752.1
56740.4
48253.7
38153.1
26276.9
12395.9
-3883.99
-23307.3
-47301
-78534.6
-121809
-185281
-281396
-423540
-597985
15482.7
10590
8108.7
6937.24
6634.36
6999.13
7932.27
9384.19
11332.1
13767.5
16688
20090.9
23967.5
28298.9
33052.3
38178.8
43612.6
49271.1
55057.3
60862.7
66571.3
72065.3
77229.3
81955.6
86147.6
89722
92608.4
94747.9
96088.1
96577.4
96157.9
94758.7
92290.2
88641
83678.7
77253.1
69203.6
59364.1
47562.7
33603.6
17214.8
-2066.51
-25115.3
-53616.2
-90739.2
-142218
-217850
-332670
-502984
-712431
15788.1
10922.6
8496.91
7411.85
7229.46
7752.98
8887.94
10589.9
12841.4
15638.9
18984.4
22878.2
27313.6
32271.5
37716.8
43596.1
49836.4
56345.9
63016.1
69725.3
76343.6
82738.1
88779.2
94345
99325.8
103626
107166
109873
111686
112539
112360
111057
108516
104599
99137.9
91946.7
82826.3
71572.9
57977.7
41807.3
22743.5
249.839
-26687.9
-60030.2
-103485
-163794
-252535
-387569
-588421
-835938
16097.1
11259.4
8890.42
7893.38
7833.75
8519.02
9859.69
11816.7
14377.8
17544.8
21324.1
25719.7
30726.5
36325.6
42479.9
49131.3
56200.2
63585.4
71166.9
78810.2
86371.1
93702.1
100659
107105
112919
117992
122233
125559
127895
129164
129274
128113
125543
121390
115453
107505
97304.6
84607.9
69166
50705.5
28859.2
3014.02
-27989.3
-66399.3
-116488
-186055
-288562
-444873
-677955
-965775
16402.7
11592.5
9279.78
8370.13
8432.39
9278.33
10823.4
13033.7
15902.8
19437.3
23648.5
28543.6
34119.9
40358.6
47220.6
54643.9
62541.9
70804.6
79301.1
87884.1
96395.6
104674
112560
119905
126572
132443
137412
141389
144284
146005
146444
145467
142906
138555
132174
123495
112233
98101.1
80808.1
60039.3
35377.7
6131.9
-29004
-72570.7
-129414
-208418
-324974
-503040
-769162
-1.09841e+06
16696.5
11912.8
9654.42
8829.07
9008.92
10009.9
11752.2
14207.2
17373.6
21263.4
25892
31270.5
37398
44256.2
51804.5
59976.8
68680.3
77796.7
87184.6
96684.8
106126
115333
124134
132365
139879
146545
152248
156883
160352
162545
163338
162574
160055
155545
148762
139397
127120
111601
92507.3
69481.8
42058.2
9468.31
-29737.9
-78388.8
-141896
-230217
-360660
-560268
-859176
-1.22963e+06
16969.8
12210.9
10003.2
9256.43
9545.98
10691.6
12618
15301.4
18745.5
22967.1
27986
33816.4
40459.7
47897.9
56089.1
64963.7
74423.3
84341.8
94568.5
104933
115252
125338
135006
144082
152405
159835
166245
171521
175552
178216
179369
178832
176383
171749
164614
154624
141409
124594
103808
78653.5
48615.7
12854
-30218.3
-83702.1
-153548
-250736
-394409
-614571
-944820
-1.35474e+06
17214.1
12477.3
10314.9
9638.49
10026.2
11301.4
13392.6
16280.6
19973.6
24492.6
29861.4
36097.2
43203.3
51162.5
59931.4
69437.4
79577.4
90218.4
101201
112346
123460
134342
144798
154642
163704
171834
178896
184766
189322
192429
193928
193620
191254
186530
179095
168559
154510
136536
114226
87145.6
54738.5
16097
-30489.3
-88369.3
-163983
-269245
-424975
-663891
-1.02278e+06
-1.46884e+06
17420.9
12703
10578.9
9962.23
10433.3
11818.3
14049.4
17111.1
21015.3
25786.9
31452.9
38033.2
45532.8
53935
63195.4
73239
83958.6
95215.8
106844
118656
130448
142013
153145
163650
173350
182085
189713
196101
201118
204618
206426
206327
204049
199262
191586
180594
165843
146884
123274
94548.5
60111.1
18998.4
-30606.4
-92264.6
-172838
-285044
-451152
-706229
-1.08984e+06
-1.56711e+06
17583.1
12879.9
10786
10216.2
10752.6
12223.8
14564.8
17762.8
21833
26803.1
32702.6
39553.7
47362.7
56113.3
65760.5
76227.3
87403.5
99146.1
111284
123622
135950
148055
159723
170752
180959
190176
198256
205060
210448
214266
216328
216403
214203
209377
201517
190174
174874
155142
130509
100483
64439.4
21369.3
-30628.1
-95282.5
-179790
-297507
-471854
-739772
-1.14304e+06
-1.64517e+06
17694.7
13001.7
10928.5
10390.9
10972.4
12503.1
14919.7
18211.7
22396.2
27503
33563.5
40601.3
48623.7
57614.6
67528.6
78287.5
89778.9
101857
114346
127048
139748
152227
164266
175659
186218
195771
204167
211261
216909
220951
223193
223393
221251
216402
208421
196838
181162
160897
135557
104632
67475.6
23048.7
-30608.1
-97341.1
-184579
-306121
-486189
-763028
-1.17996e+06
-1.69939e+06
17751.6
13063.7
11001.2
10480
11084.4
12645.4
15100.6
18440.5
22683.3
27859.9
34002.5
41135.6
49266.8
58380.3
68430.5
79338.6
90990.9
103240
115909
128797
141687
154357
166586
178165
188905
198631
207188
214432
220214
224372
226707
226973
224862
220003
211960
200257
184389
163852
138151
106766
69040.7
23919.3
-30587.1
-98384.6
-187020
-310521
-493521
-774932
-1.19887e+06
-1.72718e+06
17751.6
13063.7
11001.2
10480
11084.4
12645.4
15100.6
18440.5
22683.3
27859.9
34002.5
41135.6
49266.8
58380.3
68430.5
79338.6
90990.9
103240
115909
128797
141687
154356
166586
178165
188905
198631
207188
214432
220214
224372
226707
226973
224862
220003
211960
200257
184389
163852
138151
106766
69040.7
23919.3
-30587.1
-98384.7
-187021
-310521
-493521
-774932
-1.19887e+06
-1.72718e+06
17694.7
13001.7
10928.5
10390.9
10972.4
12503.1
14919.7
18211.7
22396.2
27503
33563.5
40601.3
48623.7
57614.5
67528.6
78287.5
89778.9
101857
114346
127048
139748
152226
164265
175659
186218
195771
204167
211261
216909
220951
223193
223393
221251
216402
208421
196839
181162
160897
135557
104632
67475.7
23048.7
-30608.1
-97341.3
-184579
-306121
-486189
-763028
-1.17996e+06
-1.69939e+06
17583.1
12879.9
10786
10216.2
10752.6
12223.8
14564.8
17762.8
21833
26803.1
32702.6
39553.7
47362.7
56113.3
65760.5
76227.3
87403.5
99146.1
111284
123622
135950
148055
159723
170752
180959
190176
198256
205060
210448
214266
216328
216403
214203
209377
201517
190174
174874
155142
130509
100483
64439.5
21369.4
-30628.2
-95282.7
-179791
-297507
-471854
-739772
-1.14304e+06
-1.64517e+06
17420.9
12703
10578.9
9962.23
10433.3
11818.3
14049.4
17111.1
21015.3
25786.9
31452.9
38033.2
45532.8
53935
63195.4
73239
83958.6
95215.7
106844
118656
130448
142013
153145
163650
173350
182085
189713
196101
201118
204618
206426
206327
204049
199262
191586
180594
165843
146884
123275
94548.7
60111.3
18998.5
-30606.5
-92264.9
-172839
-285044
-451152
-706229
-1.08984e+06
-1.56711e+06
17214.1
12477.3
10314.9
9638.49
10026.2
11301.3
13392.6
16280.6
19973.6
24492.6
29861.4
36097.2
43203.3
51162.5
59931.4
69437.4
79577.3
90218.4
101201
112346
123459
134342
144798
154642
163704
171834
178896
184766
189322
192429
193928
193620
191254
186530
179095
168559
154510
136536
114226
87145.9
54738.7
16097.1
-30489.5
-88369.7
-163984
-269245
-424975
-663891
-1.02278e+06
-1.46884e+06
16969.8
12210.9
10003.2
9256.43
9545.97
10691.6
12618
15301.4
18745.5
22967.1
27986
33816.4
40459.6
47897.9
56089.1
64963.7
74423.3
84341.8
94568.4
104933
115252
125338
135006
144082
152405
159835
166245
171521
175552
178216
179369
178832
176383
171749
164614
154624
141409
124595
103809
78653.8
48615.9
12854.1
-30218.5
-83702.6
-153548
-250736
-394409
-614571
-944820
-1.35474e+06
16696.5
11912.8
9654.41
8829.06
9008.91
10009.9
11752.2
14207.2
17373.6
21263.4
25892
31270.5
37398
44256.2
51804.5
59976.8
68680.3
77796.7
87184.6
96684.7
106126
115333
124134
132365
139879
146545
152248
156883
160352
162545
163338
162574
160055
155545
148762
139397
127121
111601
92507.6
69482.1
42058.5
9468.43
-29738.1
-78389.3
-141897
-230217
-360660
-560268
-859176
-1.22963e+06
16402.7
11592.5
9279.77
8370.13
8432.38
9278.32
10823.3
13033.7
15902.7
19437.3
23648.5
28543.6
34119.9
40358.5
47220.6
54643.9
62541.9
70804.6
79301.1
87884
96395.5
104674
112560
119905
126572
132442
137412
141389
144284
146005
146444
145467
142906
138555
132174
123495
112234
98101.3
80808.4
60039.6
35378
6132.05
-29004.1
-72571.1
-129414
-208418
-324974
-503040
-769162
-1.09841e+06
16097.1
11259.4
8890.41
7893.37
7833.74
8519.02
9859.68
11816.7
14377.8
17544.8
21324.1
25719.7
30726.5
36325.6
42479.8
49131.3
56200.2
63585.3
71166.9
78810.1
86371
93702
100659
107105
112919
117992
122233
125559
127895
129164
129274
128113
125543
121390
115453
107505
97304.8
84608.1
69166.3
50705.8
28859.6
3014.2
-27989.4
-66399.7
-116488
-186055
-288562
-444873
-677955
-965774
15788.1
10922.6
8496.9
7411.84
7229.45
7752.97
8887.93
10589.9
12841.4
15638.9
18984.3
22878.2
27313.6
32271.5
37716.8
43596
49836.3
56345.9
63016
69725.2
76343.5
82738.1
88779.1
94344.9
99325.7
103626
107165
109873
111686
112539
112360
111057
108516
104599
99137.9
91946.8
82826.5
71573.1
57978
41807.6
22743.8
250.039
-26688
-60030.6
-103486
-163794
-252534
-387569
-588421
-835938
15482.7
10590
8108.69
6937.22
6634.35
6999.12
7932.26
9384.18
11332.1
13767.4
16688
20090.9
23967.5
28298.9
33052.2
38178.8
43612.5
49271.1
55057.3
60862.6
66571.2
72065.2
77229.2
81955.5
86147.5
89721.9
92608.3
94747.8
96088
96577.3
96157.8
94758.6
92290.1
88641
83678.7
77253.2
69203.8
59364.3
47563
33603.9
17215.1
-2066.29
-25115.4
-53616.6
-90739.6
-142218
-217850
-332670
-502984
-712430
15187.1
10268.3
7733.63
6479.35
6060.98
6273.57
7013.28
8225.56
9882.61
11971.3
14485.2
17418.7
20761.5
24495
28588.8
32998.7
37665.8
42516.9
47466.3
52418
57270.4
61919.6
66264.9
70212
73677
76588
78885.2
80519.7
81449.3
81634
81030
79583.5
77226.4
73873.1
69420.8
63752.2
56740.6
48253.9
38153.4
26277.3
12396.2
-3883.75
-23307.3
-47301.3
-78534.9
-121809
-185281
-281396
-423540
-597985
14905.4
9962.16
7377.58
6045.74
5519.14
5589.08
6147.4
7134.98
8519.39
10283.2
12416.4
14910.5
17754.2
20929.3
24407.8
28150.2
32104.4
36206.3
40380.8
44544.6
48609.1
52484.6
56083.6
59325.2
62137.1
64458.4
66239.1
67439.2
68025.8
67969
67236.8
65790.4
63580
60542.2
56599.7
51663.6
45636.6
38416.2
29892.4
19933.7
8349.3
-5192
-21315.6
-41213.1
-67099.5
-102933
-155398
-234627
-351426
-494496
14639.7
9674.21
7044.03
5641.26
5015.54
4954.66
5346.49
6127.7
7261.7
8727.19
10510.9
12602.1
14988.4
17652.3
20568.4
23701.6
27006.4
30427.2
33899.3
37350.9
40706.2
43888.2
46822.4
49439.8
51679.5
53490.3
54831.2
55670.1
55982.1
55745.7
54939.1
53535.5
51500.5
48788.9
45345.2
41103.8
35992.3
29932.9
22840.2
14608.9
5082.1
-6015.4
-19202.1
-35460
-56600.8
-85839.3
-128568
-192903
-287431
-403045
14389.5
9404.3
6733.68
5267.78
4553.52
4375.42
4617.7
5213.26
6121.79
7318.57
8787.53
10516.1
12491.3
14696.2
17107.9
19695.6
22420.2
25233.9
28081.5
30902.3
33631.9
36205.3
38559.8
40637.6
42387.7
43768
44745.3
45294.4
45397.2
45038.9
44205.7
42880.9
41041.9
38658.6
35692.5
32097.3
27820.8
22805.4
16986
10279.4
2557.89
-6404.6
-17032.9
-30125.8
-47144.9
-70663.6
-104966
-156455
-231849
-323979
14150.8
9148.94
6443.9
4923.81
4132.89
3852.54
3963.63
4395.69
5105.17
6064.48
7255.21
8663.32
10275.3
12075.3
14042.7
16150.9
18366.4
20648.8
22951.8
25224.3
27412.6
29462.6
31322.1
32943.3
34284.4
35311.1
35996.9
36322.7
36275.5
35846.1
35026.9
33808.6
32177.9
30116.3
27598.5
24593.5
21064.6
16970.7
12263
6876.18
707.484
-6426.99
-14871.5
-25267.9
-38780.3
-57440
-84601.7
-125243
-184552
-257033
13915.1
8900.28
6167.99
4604.02
3749.7
3383.28
3382.53
3673.97
4211.34
4964.68
5913.77
7043.47
8340.14
9788.9
11371.6
13065.2
14841.7
16667.2
18503.3
20307.8
22036.4
23644.8
25090
26333.2
27340.6
28084.5
28544.4
28705.9
28560.3
28102.6
27329.3
26236.9
24818.9
23065
20960.3
18484.7
15614.1
12319.5
8564.81
4299.67
-558.247
-6157.2
-12773.4
-20916.8
-31503.3
-46115.9
-67346.6
-99012.6
-145079
-201468
13667.5
8644.55
5894.04
4298.6
3396.01
2961.11
2868.67
3042.62
3434.53
4012.65
4755.49
5647.24
6674.42
7823.26
9077.82
10418.7
11822.4
13261.2
14703.7
16115.4
17460.4
18702.8
19808
20744.8
21486.1
22010.4
22301.7
22349.6
22148.5
21696.4
20992.9
20038
18830
17364.6
15633.8
13626
11325.6
8713.09
5762.21
2434.1
-1336.65
-5668.6
-10781.3
-17076
-25265.3
-36568.8
-52965.2
-77349.1
-112729
-156209
13383.7
8359.56
5603.28
3992.37
3059.62
2575.85
2412.85
2492.47
2764.72
3196.82
3766.57
4458
5258.09
6154.3
7132.88
8177.63
9269.29
10385.4
11500.7
12587.6
13617.5
14561.6
15392.7
16086.1
16620.6
16979.4
17150.5
17126.7
16904.5
16483.8
15866.2
15053.8
14048
12848.2
11451.2
9850.87
8038.01
5999.55
3716.65
1159.48
-1723.59
-5026.67
-8922.74
-13724.5
-19981.1
-28622.8
-41145.6
-59725.8
-86644.4
-119970
13024.5
8010.59
5267.61
3663.7
2723.92
2214.05
2003.07
2011.48
2188.71
2501.79
2928.63
3453.63
4064.57
4750.31
5499.19
6297.97
7131.18
7981.01
8827.5
9649.08
10423.3
11127.9
11741.5
12245.2
12622.5
12860.9
12951.5
12889.2
12672.3
12301.5
11779.7
11109.9
10295
9336.63
8234.4
6985.74
5585.46
4025.1
2291.1
360.705
-1806.57
-4284.67
-7208.52
-10819.4
-15536.6
-22063.6
-31524
-45547.8
-65877.7
-91363.2
12526
7543.56
4846.19
3283.48
2368.1
1859.74
1625.44
1585.8
1691.18
1909.66
2220.19
2608.24
3062.79
3574.27
4133.1
4728.75
5349.14
5980.53
6607.64
7214.01
7782.57
8296.41
8739.49
9097.41
9358.08
9512.12
9553.16
9477.8
9285.3
8977.05
8555.89
8025.26
7388.47
6647.95
5804.81
4858.37
3805.88
2641.82
1356.43
-67.5567
-1661.46
-3482.49
-5634.22
-8300.23
-11796.9
-16651.9
-23705
-34180.8
-49439.3
-68962.1
11779
6872.88
4281.11
2814.95
1968.44
1495.96
1265.57
1200.97
1255.84
1401.1
1617.94
1893.65
2218.92
2585.95
2987.24
3414.77
3859.54
4311.39
4759.1
5190.64
5593.58
5955.65
6265.22
6511.94
6687.14
6784.21
6798.75
6728.6
6573.59
6335.17
6015.91
5618.87
5147.08
4602.95
3987.93
3302.13
2544
1709.84
792.558
-220.779
-1353.75
-2649.27
-4184.54
-6095.51
-8615.66
-12134.4
-17275.6
-24966.9
-36311.9
-51321.9
10580.9
5860.13
3493.67
2216.33
1501.87
1107.58
910.526
843.281
866.558
956.429
1097.78
1280.63
1497.82
1743.56
2012.47
2298.9
2596.63
2898.73
3197.54
3484.92
3752.46
3991.9
4195.45
4356.18
4468.36
4527.66
4531.3
4478.02
4367.92
4202.24
3982.96
3712.41
3392.87
3026.17
2613.43
2154.8
1649.2
1093.95
483.911
-190.206
-945.173
-1811.2
-2842.24
-4133.01
-5846.66
-8258.1
-11818.1
-17228.4
-25429.9
-36924.5
8506.52
4279.7
2388.76
1451.14
953.513
685.68
551.28
501.216
508.268
556.396
635.695
739.733
863.996
1004.91
1159.23
1323.6
1494.39
1667.56
1838.69
2003.09
2155.92
2292.45
2408.25
2499.41
2562.69
2595.73
2597.03
2566.02
2502.89
2408.48
2284.05
2131.02
1950.73
1744.2
1511.95
1253.87
969.05
655.544
309.912
-73.7829
-505.89
-1004.66
-1602.35
-2355.5
-3362.27
-4791.61
-6932.88
-10277.7
-15625.3
-23980.6
4508.43
1796
893.711
514.947
329.459
232.978
184.913
166.415
167.542
182.589
208.092
241.824
282.241
328.133
378.413
431.977
487.63
544.05
599.799
653.351
703.146
747.658
785.468
815.334
836.251
847.495
848.642
839.562
820.386
791.443
753.182
706.083
650.566
586.905
515.162
435.134
346.307
247.783
138.137
15.1058
-125.019
-288.527
-486.302
-737.301
-1074.66
-1556.89
-2290.5
-3484.02
-5604.89
-9914.12
1794.72
1124.47
688.512
437.971
294.927
214.757
173.486
157.711
159.556
174.194
198.563
230.634
268.959
312.378
359.83
410.227
462.382
514.982
566.593
615.684
660.685
700.045
732.304
756.161
770.536
774.616
767.886
750.134
721.433
682.112
632.696
573.852
506.318
430.838
348.107
258.711
163.051
61.2386
-47.0984
-163.168
-289.629
-431.635
-598.539
-806.578
-1082.95
-1471.61
-2040.41
-2884.38
-4095.75
-5539.53
4274.85
2933.85
1901.67
1248.96
857.549
633.351
517.713
475.208
484.119
530.829
606.572
705.474
823.301
956.625
1102.26
1256.93
1417.02
1578.51
1737.03
1887.86
2026.19
2147.24
2246.49
2319.9
2364.11
2376.54
2355.53
2300.34
2211.11
2088.76
1934.87
1751.43
1540.72
1305.12
1046.87
767.974
469.929
153.41
-182.342
-540.598
-929.034
-1362.91
-1870.19
-2499.5
-3331.67
-4494.84
-6177.33
-8611.29
-11916.6
-15419.9
5850
4211.21
2844.72
1928.39
1358.18
1026.07
856.42
800.11
825.604
912.513
1047.43
1221.2
1427.11
1659.59
1913.35
2182.85
2461.91
2743.64
3020.44
3284.2
3526.5
3739.03
3913.88
4043.98
4123.35
4147.41
4113.11
4019.01
3865.17
3653.04
3385.17
3064.95
2696.26
2283.21
1829.81
1339.69
815.744
259.536
-329.73
-957.07
-1634.96
-2388.77
-3265.42
-4346.56
-5767.02
-7736.75
-10552.8
-14548.4
-19799.4
-25066.9
6855.52
5083.58
3542.45
2471.68
1789.69
1390.33
1192.52
1140.47
1196.85
1336.79
1543.57
1805.51
2113.82
2460.96
2839.58
3241.73
3658.5
4079.78
4494.42
4890.41
5255.31
5576.77
5843.01
6043.41
6168.98
6212.73
6169.91
6038.08
5817.05
5508.63
5116.28
4644.68
4099.31
3485.99
2810.53
2078.24
1293.51
458.942
-426.142
-1368.37
-2385.07
-3512.16
-4816.78
-6416.24
-8503.99
-11378.6
-15453.9
-21170.4
-28554.9
-35762.9
7516.86
5684.5
4056.68
2904.45
2163.53
1733.86
1534.43
1507.23
1612.19
1821.99
2117.84
2486.35
2917.07
3400.69
3927.78
4487.88
5068.98
5657.4
6237.9
6794.02
7308.65
7764.73
8145.94
8437.5
8626.81
8703.93
8661.95
8497.08
8208.54
7798.25
7270.35
6630.63
5885.96
5043.72
4111.31
3095.62
2002.43
835.328
-406.206
-1730.47
-3159.93
-4742.14
-6567.01
-8792.93
-11682.3
-15640.5
-21226.4
-29023.6
-39025.2
-48663.6
7972.2
6113.74
4447.5
3260.39
2499.35
2070.2
1894.14
1913.3
2086.94
2386.8
2793.12
3291.48
3870.18
4518.34
5224.42
5975.19
6755.23
7546.76
8329.82
9082.77
9783.04
10408
10936
11347.3
11624.8
11755.1
11728.4
11539.2
11185.4
10668.9
9993.99
9167.25
8196.56
7090.5
5857.68
4506.25
3043.12
1472.7
-205.506
-2001.66
-3944.01
-6093.39
-8566.57
-11571.6
-15456.1
-20761
-28235.5
-38661.8
-52018
-64821
8306.86
6439.96
4762.98
3571.04
2818.12
2414.83
2285.07
2372.36
2636.55
3049.56
3591.53
4247.59
5005.18
5851.96
6774.2
7755.67
8777.09
9815.97
10846.9
11842.1
12772.8
13609.6
14324.6
14892.1
15289.7
15499.5
15508.1
15307.5
14894.1
14268.7
13435.5
12401.1
11174
9763.36
8178.38
6427.94
4519.64
2458.41
243.506
-2137.46
-4719.43
-7578.97
-10865.2
-14847.5
-19980.8
-26980.3
-36845.1
-50628.2
-68311.9
-85239.4
8574.66
6709.37
5038.65
3862.25
3138.74
2782.49
2720.23
2897.48
3275.53
3827.29
4533.46
5379.23
6351.49
7436.52
8618.31
9877.33
11189.9
12528.2
13860.5
15152
16366.2
17466.5
18417.1
19185.2
19742.2
20064.6
20134.7
19940.9
19477.3
18743
17741.2
16478
14961.6
13200.7
11204.6
8982.06
6540.66
3885.34
1014.7
-2086.43
-5460.95
-9204.23
-13504.8
-18707.7
-25403
-34527.5
-47404.6
-65445.6
-88659.4
-110896
8810.08
6952.74
5299.72
4153.67
3476.48
3185.71
3210.91
3500.03
4016.41
4734.56
5636.31
6707.33
7934.21
9301.94
10792.1
12381.5
14041.6
15738.4
17432.8
19082.2
20641.3
22064.4
23307
24328.1
25091.3
25566.5
25730.6
25567.4
25067.7
24228.1
23049.9
21537.6
19697.8
17538.3
15066.7
12290.9
9217.63
5851
2188.35
-1789.03
-6133.57
-10963.2
-16514.1
-23224.2
-31851
-43609.7
-60234.9
-83601.7
-113772
-142725
9035.13
7190.24
5563.35
4459.29
3842.68
3634
3765.77
4188.71
4868.67
5782.34
6913.13
8247.61
9772.26
11470.9
13322.5
15299.9
17369
19489
21612.6
23687.8
25659.6
27471.9
29070.1
30403.4
31426.6
32101.6
32398.6
32295.9
31779.9
30843.3
29484.5
27705.1
25509.1
22901.4
19887.1
16471.6
12659.4
8453.19
3847.97
-1179.44
-6692.86
-12836.9
-19905.2
-28447.5
-39425.9
-54398.5
-75611.2
-105524
-144287
-181576
9263.49
7434.53
5840.54
4788.22
4244.74
4133.52
4390.2
4968.66
5837.75
6976.77
8371.2
10008.8
11876.3
13956.2
16224.9
18650.9
21194
23805.6
26429.4
29003.1
31460.3
33733.4
35756.3
37466.9
38809.8
39737.6
40212.7
40206.5
39699.6
38679.9
37141.2
35080.9
32498.6
29394.8
25770.4
21626.4
16964
11782.6
6074.26
-190.041
-7087.57
-14794.4
-23671.3
-34401.9
-48192.5
-67015.5
-93739.7
-131546
-180714
-228142
9503.04
7692.9
6137.5
5145.41
4686.34
4686.8
5085.83
5840.83
6924.1
8318.01
10010.6
11991.1
14246.6
16758.6
19500.5
22436.4
25519.3
28692.4
31889.2
35035.8
38053.6
40861.9
43381.8
45538.5
47265.1
48503.6
49207
49338.8
48872.3
47789.1
46076.9
43727.3
40733.7
37090.1
32791
27831.5
22207.2
15913.1
8936.76
1242.08
-7263.94
-16793.6
-27785.9
-41079.8
-58169.3
-81516.2
-114732
-161865
-223377
-282880
9757.45
7968.57
6456.68
5532.23
5167.63
5292.68
5850.14
6801.34
8122.4
9799.26
11822.8
14184.2
16871.1
19863.9
23133.5
26638.5
30325.3
34127.7
37968.6
41761.4
45414.1
48831.8
51921.2
54594
56770
58379.6
59365.1
59680.4
59290.5
58169.1
56296.1
53655.4
50232
46011.5
40979.7
35123.2
28430.6
20890.4
12484.1
3167.13
-7171.5
-18785.2
-32201.9
-48438.3
-69319
-97872.9
-138576
-196501
-272345
-345920
10027.2
8261.62
6797.35
5946.85
5685.37
5946.26
6676.29
7841.06
9420.97
11405.9
13789.8
16566.4
19723.9
23242
27088.3
31216.7
35566
40060.4
44611.1
49118.4
53475.6
57572.7
61301
64557.2
67247
69287.7
70609.8
71156.5
70882.9
69753.2
67738.1
64811.4
60948
56122.6
50309.7
43485.6
35628.9
26720.3
16733.5
5614.03
-6769.54
-20716.3
-36853.1
-56395.8
-81541.1
-115960
-165114
-235253
-327370
-416975
10310.3
8569.58
7156.17
6384.61
6233.16
6638.92
7552.96
8945.46
10801.4
13115
15883.7
19103.8
22764.5
26844.7
31309.2
36106.4
41167.8
46407.4
51724.3
57004.9
62127.2
66965.2
71394.1
75294.5
78557.1
81085.2
82796.2
83621.6
83505.2
82400.4
80266.8
77066.5
72762
67314.6
60685.6
52838
43738.8
33358.4
21661.6
8582.14
-6033.75
-22534.9
-41656
-64831
-94666.1
-135542
-194018
-277664
-387830
-495270
10602.6
8887.87
7527.52
6838.31
6801.63
7358.5
8464.48
10094.6
12238.7
14895.4
18066.2
21750
25937.2
30606.2
35718.9
41218.5
47028.6
53053.2
59178.9
65277.8
71212.2
76839.7
82018.5
86612.9
90497.7
93561.4
95707.7
96855.2
96935.4
95889.7
93665
90210
85472.7
79399.2
71935
63027.7
52630.7
40702.3
27196.6
12034.3
-4962.14
-24194.7
-46512.9
-73584
-108454
-156271
-224783
-323003
-452697
-579487
10898.5
9210.19
7903.89
7298.56
7378.79
8089.61
9391.19
11263.5
13701.4
16708.3
20289.6
24447
29172.6
34444.1
40220.7
46440.5
53019.4
59851.3
66810.3
73754.3
80529.8
86977.5
92938.8
98261.3
102804
106439
109057
110562
110874
109920
107633
103948
98795.5
92105.5
83805.6
73826.2
62105
48586.8
33213.8
15892.7
-3579.4
-25659.4
-51316.2
-82460.2
-122598
-177684
-256722
-370260
-520530
-667758
11190.9
9528.9
8276.25
7754.19
7950.49
8814.19
10310.1
12423.1
15153
18508.1
22497.9
27126.9
32388.9
38261.2
44700.3
51639.7
58987.7
66628.3
74423.5
82217.2
89840.2
97117.1
103872
109937
115154
119380
122492
124380
124950
124116
121796
117908
112368
105085
95969.4
84932.3
71894.4
56786.1
39536.6
20037.8
-1938.8
-26905.7
-55952.6
-91236.3
-136733
-199218
-288987
-418170
-589499
-757693
11472.1
9835.41
8634.5
8192.75
8501.02
9512.22
11195.6
13541
16553
20244.5
24629.1
29714.3
35495.4
41949.5
49030.9
56668.4
64763.2
73190.2
81799.7
90422.3
98873.9
106964
114500
121297
127183
132001
135611
137893
138736
138043
135715
131656
125762
117925
108034
95982.4
81672.9
65020.6
45941.3
24312
-121.191
-27925.3
-60308.2
-99669.2
-150446
-220230
-320597
-465254
-657452
-846464
11733.7
10120.6
8967.97
8601.1
9013.81
10162.6
12021
14583.2
17858.7
21864.5
26618
32129.7
38396.4
45395
53078
61369.9
70165.5
79331.1
88706.5
98109.8
107343
116202
124478
131973
138498
143885
147979
150647
151766
151224
148910
144710
138504
130164
119560
106568
91071.1
72970.5
52168.4
28527.4
1769.31
-28724.3
-64273.2
-107506
-163302
-240026
-350479
-509887
-722012
-930935
11967.4
10375.5
9265.97
8966.13
9472.32
10744.3
12759.4
15515.9
19027.3
23314.8
28399.1
34293.3
40995.8
48483.3
56706.8
65586.8
75013
84843.7
94909.5
105017
114958
124512
133461
141590
148701
154609
159151
162179
163561
163171
160885
156574
150101
141322
130089
116258
99697.9
80294.6
57938.1
32477.6
3612.79
-29321.4
-67746.2
-114499
-174858
-257897
-377536
-550393
-780711
-1.00784e+06
12165.4
10591.3
9518.43
9275.43
9860.91
11237.4
13385.5
16306.8
20018.6
24545.2
29910.4
36129.7
43202.5
51105.8
59789
69169.8
79133
89530.7
100185
110895
121440
131591
141116
149791
157406
163766
168698
172043
173659
173409
171157
166762
160073
150930
139168
124629
107167
86653.9
62970.5
35953.3
5283.45
-29744.3
-70638
-120414
-184694
-273161
-400703
-585140
-831143
-1.07398e+06
12320.6
10760.6
9716.4
9518.02
10165.7
11624.3
13876.7
16927.5
20796.6
25511.1
31097.1
37571.8
44935.8
53166.1
62211
71985.9
82372
93216.4
104336
115520
126543
137165
147146
156255
164271
170991
176235
179835
181642
181509
179291
174837
167984
158559
146387
131293
113122
91736.5
67006.1
38759.1
6661.15
-30024.3
-72874.2
-125046
-192435
-285208
-419021
-612655
-871125
-1.12647e+06
12427.3
10877
9852.65
9684.99
10375.6
11890.6
14214.9
17354.9
21332.4
26176.4
31914.6
38565.4
46130.1
54586
63880.4
73927.3
84605.3
95758.2
107198
118711
130064
141012
151311
160720
169014
175986
181447
185227
187168
187119
184928
180437
173474
163858
151404
135930
117271
95282
69828
40729.9