/*--------------------------------*- C++ -*----------------------------------*\
| =========                 |                                                 |
| \\      /  F ield         | OpenFOAM: The Open Source CFD Toolbox           |
|  \\    /   O peration     | Version:  5.x                                   |
|   \\  /    A nd           | Web:      www.OpenFOAM.org                      |
|    \\/     M anipulation  |                                                 |
\*---------------------------------------------------------------------------*/
FoamFile
{
    version     2.0;
    format      ascii;
    class       volScalarField;
    location    "0.1";
    object      T;
}
// * * * * * * * * * * * * * * * * * * * * * * * * * * * * * * * * * * * * * //

dimensions      [0 0 0 1 0 0 0];

internalField   nonuniform List<scalar> 
25000
(
300.658
301.146
301.376
301.503
301.582
301.635
301.675
301.709
301.742
301.776
301.815
301.859
301.911
301.972
302.043
302.124
302.215
302.319
302.433
302.559
302.694
302.84
302.994
303.154
303.32
303.489
303.659
303.828
303.994
304.156
304.311
304.457
304.593
304.718
304.828
304.924
305.002
305.062
305.101
305.117
305.107
305.067
304.992
304.873
304.697
304.443
304.074
303.527
302.681
301.285
301.146
302.257
302.858
303.212
303.438
303.594
303.712
303.814
303.913
304.018
304.135
304.272
304.431
304.617
304.833
305.081
305.363
305.679
306.03
306.414
306.831
307.277
307.748
308.24
308.748
309.265
309.786
310.304
310.812
311.305
311.776
312.219
312.628
312.999
313.326
313.604
313.828
313.991
314.09
314.115
314.06
313.913
313.658
313.272
312.716
311.927
310.799
309.154
306.688
302.904
301.376
302.857
303.72
304.254
304.606
304.855
305.049
305.219
305.386
305.566
305.769
306.005
306.281
306.604
306.979
307.409
307.898
308.448
309.058
309.727
310.452
311.228
312.049
312.906
313.791
314.693
315.602
316.506
317.393
318.253
319.074
319.846
320.559
321.203
321.77
322.249
322.632
322.908
323.069
323.102
322.993
322.724
322.269
321.587
320.615
319.248
317.312
314.521
310.421
304.349
301.502
303.209
304.251
304.922
305.377
305.709
305.976
306.216
306.456
306.718
307.017
307.365
307.774
308.253
308.808
309.447
310.174
310.991
311.899
312.895
313.975
315.132
316.357
317.639
318.962
320.313
321.676
323.033
324.367
325.662
326.901
328.069
329.149
330.128
330.99
331.723
332.311
332.74
332.995
333.057
332.907
332.516
331.847
330.842
329.409
327.396
324.555
320.485
314.568
305.961
301.579
303.431
304.597
305.37
305.91
306.317
306.654
306.967
307.288
307.643
308.052
308.532
309.096
309.757
310.525
311.41
312.417
313.55
314.809
316.193
317.695
319.306
321.013
322.801
324.652
326.545
328.457
330.366
332.248
334.08
335.839
337.503
339.049
340.458
341.708
342.78
343.652
344.302
344.708
344.845
344.681
344.18
343.288
341.926
339.968
337.208
333.307
327.726
319.635
307.95
301.63
303.58
304.834
305.687
306.3
306.776
307.185
307.578
307.99
308.453
308.991
309.624
310.372
311.25
312.272
313.45
314.792
316.302
317.984
319.833
321.844
324.003
326.295
328.699
331.193
333.749
336.337
338.929
341.493
343.998
346.414
348.71
350.858
352.828
354.592
356.122
357.387
358.356
358.997
359.272
359.141
358.55
357.427
355.666
353.099
349.451
344.274
336.842
326.054
310.491
301.666
303.687
305.01
305.928
306.607
307.152
307.638
308.117
308.635
309.223
309.913
310.73
311.696
312.833
314.158
315.686
317.429
319.394
321.583
323.994
326.618
329.441
332.443
335.599
338.878
342.247
345.669
349.107
352.52
355.869
359.114
362.215
365.135
367.835
370.274
372.415
374.215
375.63
376.615
377.117
377.078
376.427
375.068
372.858
369.578
364.866
358.129
348.407
334.238
313.75
301.695
303.772
305.153
306.13
306.872
307.488
308.056
308.636
309.274
310.01
310.879
311.912
313.138
314.582
316.267
318.213
320.434
322.942
325.739
328.823
332.185
335.807
339.666
343.731
347.964
352.325
356.768
361.246
365.708
370.105
374.387
378.502
382.402
386.034
389.348
392.288
394.798
396.818
398.283
399.123
399.257
398.588
396.989
394.276
390.159
384.17
375.531
362.983
344.592
317.892
301.719
303.847
305.279
306.314
307.121
307.814
308.474
309.167
309.944
310.851
311.93
313.217
314.747
316.553
318.663
321.102
323.889
327.038
330.556
334.44
338.679
343.254
348.137
353.29
358.67
364.226
369.904
375.644
381.386
387.068
392.627
398
403.122
407.928
412.348
416.312
419.742
422.557
424.67
425.983
426.39
425.76
423.927
420.651
415.56
408.049
397.114
381.111
357.509
323.079
301.743
303.918
305.402
306.495
307.372
308.148
308.913
309.734
310.671
311.776
313.097
314.678
316.562
318.788
321.392
324.405
327.853
331.752
336.112
340.933
346.202
351.898
357.987
364.427
371.164
378.14
385.289
392.539
399.818
407.049
414.156
421.06
427.68
433.931
439.726
444.971
449.564
453.397
456.352
458.302
459.102
458.585
456.531
452.636
446.424
437.124
423.448
403.283
373.351
329.462
301.766
303.99
305.528
306.683
307.635
308.505
309.385
310.352
311.47
312.8
314.398
316.315
318.604
321.312
324.483
328.155
332.361
337.123
342.455
348.356
354.815
361.809
369.298
377.233
385.553
394.188
403.06
412.086
421.178
430.245
439.193
447.927
456.346
464.344
471.809
478.621
484.648
489.749
493.77
496.543
497.882
497.566
495.32
490.753
483.27
471.895
455.004
429.909
392.422
337.169
301.791
304.065
305.66
306.883
307.917
308.889
309.899
311.028
312.35
313.932
315.841
318.137
320.881
324.132
327.942
332.36
337.423
343.162
349.594
356.722
364.534
373.004
382.09
391.733
401.866
412.405
423.262
434.338
445.53
456.731
467.828
478.706
489.242
499.306
508.758
517.444
525.199
531.841
537.173
540.977
543.016
543.01
540.61
535.329
526.426
512.689
492.09
461.262
414.929
346.289
301.817
304.146
305.801
307.097
308.22
309.304
310.455
311.763
313.309
315.171
317.423
320.138
323.387
327.239
331.759
337.002
343.019
349.844
357.501
365.996
375.319
385.44
396.313
407.874
420.043
432.729
445.826
459.224
472.802
486.435
499.99
513.329
526.306
538.761
550.523
561.401
571.188
579.656
586.555
591.613
594.528
594.952
592.451
586.426
575.966
559.586
534.793
497.427
440.942
356.857
301.844
304.231
305.951
307.324
308.543
309.749
311.053
312.554
314.343
316.507
319.131
322.301
326.099
330.606
335.897
342.041
349.096
357.107
366.103
376.094
387.07
399.002
411.838
425.508
439.923
454.979
470.558
486.533
502.766
519.113
535.42
551.525
567.253
582.416
596.803
610.184
622.303
632.88
641.605
648.141
652.116
653.1
650.562
643.777
631.642
612.363
582.918
538.25
470.36
368.834
301.873
304.32
306.109
307.563
308.884
310.217
311.684
313.39
315.437
317.923
320.944
324.598
328.981
334.185
340.3
347.406
355.572
364.851
375.28
386.874
399.625
413.503
428.451
444.394
461.234
478.853
497.122
515.897
535.022
554.332
573.652
592.795
611.556
629.711
647.012
663.183
677.914
690.864
701.659
709.889
715.101
716.775
714.274
706.729
692.828
670.433
635.941
583.293
502.873
382.1
301.903
304.412
306.272
307.811
309.237
310.703
312.338
314.258
316.574
319.395
322.829
326.988
331.981
337.914
344.889
353
362.328
372.935
384.866
398.141
412.756
428.679
445.852
464.191
483.589
503.921
525.04
546.787
568.989
591.462
614.005
636.405
658.428
679.812
700.267
719.467
737.046
752.598
765.675
775.789
782.398
784.886
782.498
774.211
758.486
732.817
692.968
631.803
537.941
396.435
301.933
304.506
306.437
308.062
309.594
311.195
313.002
315.139
317.729
320.89
324.746
329.42
335.034
341.711
349.565
358.703
369.217
381.183
394.651
409.649
426.175
444.198
463.656
484.461
506.498
529.629
553.695
578.522
603.919
629.68
655.584
681.39
706.83
731.607
755.386
777.788
798.388
816.71
832.231
844.376
852.513
855.92
853.719
844.724
827.159
798.129
752.737
682.704
574.788
411.522
301.963
304.598
306.6
308.31
309.948
311.683
313.659
316.012
318.873
322.373
326.648
331.833
338.065
345.481
354.209
364.369
376.066
389.386
404.388
421.106
439.542
459.664
481.411
504.688
529.373
555.317
582.35
610.282
638.906
667.996
697.308
726.573
755.495
783.736
810.917
836.605
860.315
881.499
899.555
913.822
923.571
927.973
926.024
916.372
896.995
864.606
813.628
734.616
612.412
426.951
301.992
304.687
306.757
308.549
310.289
312.152
314.292
316.853
319.975
323.802
328.481
334.159
340.989
349.118
358.691
369.84
382.682
397.312
413.801
432.186
452.475
474.637
498.608
524.29
551.554
580.242
610.172
641.141
672.926
705.282
737.944
770.617
802.973
834.639
865.191
894.144
920.95
944.992
965.59
981.995
993.383
998.819
997.17
986.923
965.815
930.165
873.728
785.901
649.621
442.23
302.018
304.769
306.903
308.771
310.605
312.589
314.882
317.636
321.003
325.135
330.189
336.329
343.716
352.513
362.875
374.948
388.861
404.718
422.597
442.545
464.571
488.646
514.706
542.649
572.339
603.611
636.273
670.108
704.881
740.329
776.167
812.077
847.7
882.63
916.4
948.475
978.249
1005.04
1028.09
1046.56
1059.55
1066.01
1064.69
1053.92
1031.21
992.502
930.915
834.738
685.087
456.81
302.042
304.843
307.033
308.969
310.889
312.98
315.409
318.337
321.921
326.326
331.719
338.271
346.157
355.552
366.622
379.525
394.397
411.356
430.485
451.836
475.423
501.22
529.16
559.139
591.017
624.621
659.75
696.179
733.657
771.908
810.629
849.479
888.076
925.981
962.689
997.619
1030.11
1059.42
1084.73
1105.11
1119.58
1127.01
1126.02
1114.81
1090.68
1049.22
982.978
879.23
717.421
470.116
302.063
304.906
307.144
309.137
311.129
313.311
315.856
318.93
322.7
327.337
333.015
339.918
348.228
358.131
369.802
383.409
399.098
416.992
437.184
459.73
484.647
511.909
541.452
573.167
606.912
642.507
679.746
718.392
758.186
798.839
840.033
881.41
922.564
963.029
1002.27
1039.66
1074.51
1106
1133.26
1155.31
1171.08
1179.36
1178.68
1167.11
1141.77
1097.98
1027.76
917.516
745.264
481.582
302.078
304.955
307.23
309.269
311.317
313.57
316.206
319.396
323.312
328.129
334.033
341.21
349.854
360.155
372.3
386.46
402.79
421.421
442.449
465.935
491.898
520.315
551.12
584.204
619.42
656.587
695.491
735.89
777.515
820.069
863.221
906.6
949.782
992.281
1033.53
1072.89
1109.6
1142.84
1171.66
1195.04
1211.85
1220.82
1220.4
1208.57
1182.29
1136.65
1063.28
947.908
767.376
490.694
302.089
304.989
307.29
309.36
311.446
313.749
316.448
319.717
323.732
328.675
334.733
342.101
350.974
361.55
374.02
388.562
405.335
424.473
446.078
470.212
496.897
526.111
557.787
591.817
628.051
666.304
706.359
747.971
790.864
834.734
879.244
924.011
968.601
1012.51
1055.16
1095.88
1133.9
1168.35
1198.26
1222.57
1240.11
1249.56
1249.33
1237.31
1210.39
1163.48
1087.94
969.008
782.733
497.025
302.095
305.006
307.32
309.406
311.512
313.84
316.571
319.88
323.947
328.954
335.091
342.555
351.545
362.261
374.897
389.633
406.633
426.03
447.929
472.393
499.447
529.068
561.19
595.702
632.456
671.264
711.908
754.14
797.681
842.225
887.43
932.908
978.219
1022.85
1066.22
1107.64
1146.32
1181.39
1211.86
1236.65
1254.57
1264.27
1264.14
1252.03
1224.78
1177.23
1100.57
979.818
790.602
500.27
302.095
305.006
307.32
309.406
311.512
313.84
316.571
319.88
323.947
328.954
335.091
342.555
351.545
362.261
374.897
389.633
406.632
426.03
447.929
472.393
499.447
529.068
561.19
595.702
632.456
671.264
711.908
754.14
797.681
842.225
887.43
932.908
978.219
1022.85
1066.22
1107.64
1146.32
1181.39
1211.86
1236.65
1254.57
1264.27
1264.14
1252.03
1224.78
1177.23
1100.57
979.818
790.602
500.27
302.089
304.989
307.29
309.36
311.446
313.749
316.448
319.717
323.732
328.675
334.733
342.101
350.974
361.55
374.02
388.562
405.335
424.473
446.078
470.212
496.897
526.111
557.787
591.817
628.051
666.304
706.359
747.971
790.864
834.734
879.244
924.011
968.601
1012.51
1055.16
1095.88
1133.9
1168.35
1198.26
1222.57
1240.11
1249.56
1249.33
1237.31
1210.39
1163.48
1087.94
969.008
782.733
497.025
302.078
304.955
307.23
309.269
311.317
313.57
316.206
319.396
323.312
328.129
334.033
341.21
349.854
360.155
372.3
386.46
402.79
421.421
442.449
465.934
491.897
520.315
551.119
584.204
619.42
656.587
695.491
735.89
777.515
820.069
863.221
906.6
949.782
992.281
1033.53
1072.89
1109.6
1142.84
1171.66
1195.04
1211.85
1220.82
1220.4
1208.57
1182.29
1136.65
1063.28
947.908
767.376
490.694
302.063
304.906
307.144
309.137
311.129
313.311
315.856
318.93
322.7
327.337
333.015
339.918
348.228
358.131
369.802
383.409
399.098
416.992
437.184
459.73
484.647
511.909
541.452
573.167
606.912
642.507
679.746
718.392
758.186
798.839
840.033
881.41
922.564
963.029
1002.27
1039.66
1074.51
1106
1133.26
1155.31
1171.08
1179.36
1178.68
1167.11
1141.77
1097.98
1027.76
917.516
745.264
481.582
302.042
304.843
307.033
308.969
310.889
312.98
315.409
318.337
321.921
326.326
331.719
338.271
346.157
355.552
366.622
379.525
394.397
411.356
430.485
451.836
475.423
501.22
529.16
559.139
591.017
624.621
659.75
696.179
733.657
771.908
810.628
849.479
888.076
925.981
962.688
997.619
1030.11
1059.42
1084.73
1105.11
1119.58
1127.01
1126.02
1114.81
1090.68
1049.22
982.978
879.23
717.421
470.116
302.018
304.769
306.903
308.771
310.605
312.589
314.882
317.636
321.003
325.134
330.189
336.329
343.716
352.513
362.875
374.948
388.861
404.718
422.597
442.545
464.571
488.646
514.706
542.648
572.339
603.611
636.272
670.108
704.881
740.329
776.167
812.076
847.7
882.63
916.4
948.475
978.249
1005.04
1028.09
1046.56
1059.55
1066.01
1064.69
1053.92
1031.21
992.502
930.915
834.738
685.086
456.81
301.992
304.687
306.757
308.549
310.289
312.152
314.292
316.853
319.975
323.802
328.481
334.159
340.989
349.118
358.691
369.84
382.682
397.312
413.801
432.186
452.475
474.637
498.608
524.29
551.554
580.242
610.172
641.141
672.925
705.282
737.944
770.617
802.973
834.639
865.191
894.144
920.95
944.992
965.59
981.995
993.383
998.819
997.17
986.923
965.815
930.165
873.728
785.901
649.621
442.23
301.963
304.598
306.6
308.31
309.948
311.683
313.659
316.012
318.873
322.373
326.648
331.833
338.065
345.481
354.209
364.369
376.066
389.386
404.388
421.106
439.542
459.664
481.411
504.688
529.373
555.317
582.35
610.282
638.905
667.995
697.307
726.573
755.494
783.735
810.916
836.605
860.314
881.499
899.555
913.822
923.571
927.973
926.024
916.372
896.995
864.606
813.628
734.616
612.412
426.951
301.933
304.506
306.437
308.062
309.594
311.195
313.002
315.139
317.729
320.89
324.746
329.42
335.034
341.711
349.565
358.703
369.217
381.183
394.651
409.649
426.175
444.198
463.656
484.461
506.498
529.629
553.695
578.522
603.919
629.68
655.584
681.389
706.829
731.606
755.385
777.788
798.387
816.71
832.231
844.376
852.513
855.92
853.719
844.724
827.159
798.129
752.737
682.704
574.788
411.522
301.903
304.412
306.272
307.811
309.237
310.703
312.338
314.258
316.574
319.395
322.829
326.988
331.981
337.914
344.889
353
362.328
372.935
384.866
398.141
412.756
428.679
445.851
464.19
483.589
503.921
525.04
546.787
568.989
591.461
614.005
636.405
658.427
679.812
700.267
719.467
737.046
752.597
765.675
775.789
782.398
784.886
782.498
774.211
758.486
732.817
692.968
631.803
537.941
396.435
301.873
304.32
306.109
307.563
308.884
310.217
311.684
313.39
315.437
317.923
320.944
324.598
328.981
334.185
340.3
347.406
355.572
364.851
375.28
386.874
399.625
413.502
428.451
444.394
461.233
478.853
497.122
515.896
535.021
554.332
573.652
592.795
611.556
629.711
647.012
663.182
677.913
690.864
701.659
709.889
715.101
716.775
714.274
706.729
692.828
670.433
635.94
583.293
502.872
382.1
301.844
304.231
305.951
307.324
308.543
309.749
311.053
312.554
314.343
316.507
319.131
322.301
326.099
330.606
335.897
342.041
349.096
357.107
366.103
376.094
387.07
399.002
411.838
425.508
439.923
454.979
470.558
486.533
502.766
519.113
535.42
551.525
567.253
582.415
596.802
610.184
622.303
632.88
641.605
648.141
652.116
653.1
650.562
643.777
631.642
612.363
582.918
538.25
470.36
368.834
301.817
304.146
305.801
307.097
308.22
309.304
310.455
311.763
313.309
315.171
317.423
320.138
323.387
327.239
331.759
337.002
343.019
349.844
357.501
365.996
375.319
385.44
396.313
407.874
420.043
432.728
445.826
459.224
472.802
486.434
499.99
513.329
526.306
538.761
550.523
561.401
571.188
579.656
586.554
591.613
594.528
594.952
592.451
586.426
575.966
559.586
534.793
497.427
440.942
356.857
301.791
304.065
305.66
306.883
307.917
308.889
309.899
311.028
312.35
313.932
315.841
318.137
320.881
324.132
327.942
332.359
337.423
343.162
349.594
356.722
364.534
373.004
382.089
391.733
401.865
412.405
423.262
434.337
445.53
456.73
467.828
478.706
489.242
499.306
508.758
517.444
525.199
531.841
537.172
540.977
543.016
543.01
540.61
535.329
526.426
512.689
492.09
461.262
414.929
346.289
301.766
303.99
305.528
306.683
307.635
308.505
309.385
310.352
311.47
312.8
314.398
316.315
318.604
321.312
324.483
328.155
332.361
337.123
342.454
348.356
354.815
361.809
369.298
377.232
385.553
394.188
403.06
412.086
421.178
430.245
439.193
447.927
456.345
464.344
471.809
478.621
484.648
489.749
493.77
496.543
497.882
497.566
495.32
490.753
483.27
471.895
455.004
429.909
392.422
337.169
301.743
303.918
305.402
306.495
307.372
308.148
308.913
309.734
310.671
311.776
313.097
314.678
316.562
318.788
321.392
324.405
327.853
331.752
336.112
340.933
346.202
351.898
357.987
364.426
371.164
378.14
385.289
392.539
399.818
407.049
414.156
421.06
427.68
433.931
439.726
444.97
449.563
453.396
456.352
458.301
459.102
458.584
456.531
452.636
446.424
437.124
423.448
403.283
373.351
329.462
301.719
303.847
305.279
306.314
307.121
307.814
308.474
309.167
309.944
310.851
311.93
313.217
314.747
316.553
318.663
321.102
323.889
327.038
330.556
334.44
338.679
343.254
348.137
353.29
358.67
364.226
369.904
375.644
381.386
387.068
392.627
398
403.122
407.927
412.348
416.312
419.742
422.557
424.67
425.983
426.39
425.76
423.927
420.651
415.56
408.049
397.114
381.111
357.509
323.079
301.695
303.772
305.153
306.13
306.872
307.488
308.056
308.636
309.274
310.01
310.879
311.912
313.137
314.582
316.267
318.213
320.434
322.942
325.739
328.823
332.185
335.807
339.666
343.73
347.964
352.325
356.768
361.246
365.708
370.105
374.386
378.502
382.402
386.034
389.348
392.288
394.798
396.818
398.283
399.123
399.257
398.588
396.989
394.276
390.159
384.17
375.531
362.983
344.592
317.892
301.666
303.687
305.01
305.928
306.607
307.152
307.637
308.117
308.634
309.223
309.913
310.73
311.696
312.833
314.158
315.686
317.429
319.394
321.583
323.994
326.618
329.441
332.443
335.598
338.877
342.247
345.669
349.107
352.52
355.869
359.113
362.215
365.135
367.834
370.274
372.415
374.215
375.63
376.614
377.117
377.078
376.427
375.068
372.858
369.578
364.866
358.129
348.407
334.238
313.75
301.63
303.58
304.834
305.687
306.3
306.776
307.185
307.577
307.99
308.453
308.991
309.624
310.372
311.25
312.272
313.45
314.792
316.302
317.984
319.833
321.844
324.003
326.295
328.699
331.193
333.748
336.337
338.929
341.493
343.998
346.413
348.71
350.857
352.828
354.592
356.122
357.386
358.356
358.996
359.272
359.141
358.55
357.427
355.666
353.099
349.451
344.274
336.842
326.054
310.491
301.579
303.431
304.597
305.37
305.91
306.317
306.654
306.967
307.288
307.643
308.052
308.532
309.096
309.757
310.525
311.41
312.417
313.55
314.809
316.193
317.695
319.306
321.013
322.801
324.652
326.545
328.457
330.366
332.248
334.08
335.839
337.502
339.049
340.458
341.708
342.78
343.652
344.302
344.708
344.845
344.681
344.18
343.288
341.926
339.968
337.208
333.307
327.726
319.635
307.95
301.502
303.209
304.251
304.922
305.377
305.709
305.976
306.215
306.456
306.718
307.017
307.365
307.774
308.253
308.808
309.447
310.174
310.991
311.899
312.895
313.975
315.132
316.357
317.638
318.962
320.313
321.676
323.033
324.367
325.662
326.901
328.069
329.149
330.127
330.99
331.723
332.311
332.74
332.995
333.057
332.907
332.516
331.847
330.842
329.409
327.396
324.555
320.485
314.568
305.961
301.376
302.857
303.72
304.254
304.606
304.855
305.049
305.219
305.386
305.566
305.769
306.005
306.281
306.604
306.979
307.409
307.898
308.448
309.058
309.727
310.452
311.228
312.048
312.906
313.791
314.693
315.602
316.506
317.393
318.253
319.074
319.846
320.559
321.203
321.77
322.249
322.631
322.908
323.069
323.102
322.993
322.724
322.268
321.587
320.615
319.248
317.312
314.521
310.421
304.349
301.146
302.257
302.858
303.212
303.438
303.594
303.712
303.814
303.913
304.018
304.135
304.272
304.431
304.617
304.833
305.081
305.363
305.679
306.03
306.414
306.831
307.277
307.748
308.24
308.748
309.265
309.786
310.304
310.812
311.305
311.776
312.219
312.628
312.999
313.326
313.604
313.827
313.991
314.09
314.115
314.06
313.913
313.658
313.272
312.716
311.927
310.799
309.154
306.688
302.904
300.658
301.146
301.376
301.503
301.582
301.635
301.675
301.709
301.742
301.776
301.815
301.859
301.911
301.972
302.043
302.124
302.215
302.319
302.433
302.559
302.694
302.84
302.993
303.154
303.32
303.489
303.659
303.828
303.994
304.156
304.311
304.457
304.593
304.718
304.828
304.924
305.002
305.062
305.101
305.117
305.107
305.067
304.992
304.873
304.697
304.443
304.074
303.527
302.681
301.285
300.219
300.499
300.669
300.774
300.844
300.892
300.93
300.962
300.993
301.026
301.062
301.105
301.155
301.213
301.28
301.357
301.444
301.542
301.65
301.768
301.896
302.032
302.176
302.325
302.479
302.634
302.788
302.941
303.088
303.229
303.361
303.482
303.591
303.685
303.763
303.824
303.867
303.889
303.891
303.871
303.826
303.755
303.653
303.515
303.331
303.082
302.742
302.266
301.588
300.628
300.499
301.211
301.673
301.972
302.172
302.315
302.425
302.522
302.616
302.715
302.828
302.958
303.11
303.287
303.493
303.728
303.995
304.295
304.627
304.99
305.382
305.8
306.241
306.699
307.169
307.645
308.119
308.587
309.04
309.471
309.875
310.245
310.576
310.861
311.098
311.28
311.405
311.468
311.466
311.395
311.25
311.024
310.705
310.276
309.705
308.943
307.907
306.472
304.463
301.705
300.668
301.672
302.353
302.81
303.124
303.353
303.535
303.695
303.855
304.026
304.22
304.445
304.708
305.016
305.372
305.781
306.245
306.766
307.342
307.974
308.656
309.384
310.152
310.95
311.769
312.599
313.428
314.245
315.036
315.791
316.497
317.145
317.723
318.223
318.636
318.955
319.172
319.281
319.276
319.15
318.893
318.496
317.938
317.189
316.199
314.883
313.104
310.661
307.285
302.742
300.773
301.969
302.807
303.386
303.795
304.102
304.352
304.579
304.808
305.057
305.342
305.675
306.065
306.52
307.049
307.656
308.346
309.12
309.978
310.917
311.934
313.02
314.165
315.357
316.582
317.824
319.067
320.292
321.482
322.619
323.686
324.666
325.544
326.305
326.938
327.43
327.769
327.947
327.953
327.777
327.406
326.822
326.001
324.896
323.434
321.494
318.883
315.313
310.415
303.891
300.841
302.165
303.115
303.788
304.277
304.653
304.97
305.267
305.573
305.912
306.302
306.759
307.297
307.926
308.657
309.497
310.452
311.525
312.715
314.02
315.433
316.943
318.539
320.202
321.914
323.653
325.395
327.117
328.794
330.401
331.913
333.309
334.566
335.663
336.583
337.308
337.821
338.109
338.155
337.946
337.463
336.682
335.566
334.055
332.049
329.383
325.793
320.892
314.184
305.282
300.888
302.301
303.333
304.08
304.637
305.08
305.465
305.838
306.231
306.672
307.185
307.79
308.502
309.338
310.309
311.427
312.699
314.13
315.718
317.461
319.351
321.375
323.514
325.749
328.053
330.399
332.755
335.09
337.371
339.565
341.639
343.562
345.306
346.841
348.142
349.184
349.944
350.401
350.533
350.319
349.733
348.741
347.295
345.315
342.667
339.132
334.362
327.838
318.898
307.031
300.921
302.401
303.497
304.307
304.926
305.434
305.892
306.348
306.841
307.402
308.061
308.839
309.76
310.841
312.1
313.551
315.203
317.062
319.129
321.4
323.866
326.509
329.31
332.239
335.267
338.355
341.466
344.558
347.589
350.516
353.297
355.89
358.257
360.36
362.163
363.631
364.734
365.439
365.717
365.537
364.862
363.649
361.831
359.303
355.892
351.31
345.099
336.572
324.848
309.248
300.948
302.482
303.632
304.497
305.177
305.753
306.29
306.841
307.449
308.151
308.98
309.964
311.131
312.505
314.106
315.952
318.057
320.428
323.068
325.972
329.129
332.519
336.116
339.886
343.79
347.783
351.816
355.837
359.792
363.627
367.289
370.724
373.88
376.709
379.161
381.19
382.753
383.807
384.308
384.213
383.473
382.028
379.791
376.626
372.308
366.465
358.497
347.503
332.319
312.039
300.972
302.553
303.753
304.672
305.414
306.063
306.688
307.347
308.088
308.954
309.982
311.208
312.665
314.382
316.386
318.699
321.339
324.316
327.634
331.289
335.267
339.545
344.093
348.868
353.824
358.905
364.05
369.197
374.277
379.224
383.969
388.444
392.584
396.323
399.599
402.35
404.515
406.037
406.856
406.912
406.14
404.459
401.755
397.853
392.465
385.113
375.021
361.019
341.581
315.51
300.994
302.62
303.87
304.846
305.654
306.383
307.107
307.889
308.783
309.837
311.096
312.602
314.395
316.511
318.983
321.84
325.103
328.787
332.898
337.432
342.374
347.696
353.362
359.324
365.524
371.895
378.364
384.854
391.283
397.566
403.62
409.36
414.702
419.564
423.863
427.518
430.451
432.582
433.833
434.121
433.361
431.444
428.226
423.482
416.847
407.712
395.088
377.467
352.878
319.753
301.016
302.689
303.99
305.025
305.905
306.723
307.559
308.479
309.546
310.815
312.337
314.163
316.34
318.914
321.923
325.403
329.383
333.881
338.905
344.453
350.507
357.037
364
371.339
378.987
386.863
394.882
402.948
410.964
418.828
426.436
433.685
440.469
446.684
452.227
456.992
460.877
463.778
465.59
466.208
465.514
463.373
459.597
453.904
445.836
434.627
419.03
397.131
366.411
324.846
301.04
302.762
304.117
305.217
306.175
307.091
308.05
309.125
310.386
311.895
313.713
315.899
318.51
321.598
325.213
329.398
334.188
339.606
345.665
352.362
359.679
367.583
376.024
384.936
394.239
403.842
413.641
423.525
433.376
443.073
452.492
461.504
469.983
477.798
484.819
490.914
495.951
499.797
502.317
503.372
502.813
500.466
496.096
489.352
479.664
466.084
447.058
420.191
382.311
330.841
301.065
302.838
304.252
305.421
306.465
307.488
308.582
309.828
311.303
313.077
315.222
317.806
320.896
324.555
328.841
333.808
339.497
345.938
353.148
361.126
369.853
379.291
389.385
400.06
411.223
422.768
434.575
446.514
458.447
470.23
481.714
492.748
503.177
512.841
521.581
529.233
535.631
540.605
543.987
545.599
545.254
542.73
537.739
529.85
518.364
502.122
479.215
446.692
400.614
337.753
301.091
302.92
304.396
305.639
306.774
307.913
309.153
310.584
312.289
314.352
316.852
319.868
323.478
327.757
332.775
338.593
345.262
352.819
361.286
370.664
380.933
392.054
403.962
416.574
429.785
443.473
457.5
471.717
485.963
500.07
513.864
527.165
539.789
551.544
562.238
571.668
579.632
585.92
590.32
592.613
592.566
589.906
584.279
575.164
561.721
542.548
515.337
476.502
421.236
345.554
301.119
303.005
304.547
305.868
307.1
308.361
309.756
311.382
313.334
315.703
318.58
322.056
326.222
331.162
336.959
343.686
351.402
360.153
369.965
380.843
392.767
405.694
419.553
434.251
449.671
465.674
482.105
498.793
515.554
532.195
548.514
564.301
579.34
593.406
606.266
617.68
627.401
635.176
640.745
643.841
644.178
641.427
635.164
624.765
609.231
586.898
555.014
509.291
443.949
354.159
301.147
303.094
304.702
306.105
307.438
308.825
310.381
312.211
314.419
317.107
320.377
324.333
329.077
334.708
341.32
348.996
357.807
367.807
379.028
391.479
405.139
419.964
435.875
452.771
470.52
488.97
507.945
527.253
546.687
566.027
585.043
603.493
621.127
637.682
652.887
666.456
678.098
687.509
694.379
698.387
699.192
696.402
689.514
677.797
660.081
634.415
597.573
544.502
468.371
363.423
301.176
303.183
304.86
306.345
307.78
309.296
311.016
313.053
315.521
318.533
322.204
326.649
331.983
338.318
345.761
354.406
364.337
375.614
388.277
402.338
417.779
434.55
452.57
471.726
491.875
512.847
534.45
556.47
578.675
600.819
622.643
643.873
664.222
683.391
701.064
716.913
730.595
741.755
750.03
755.041
756.387
753.609
746.123
733.082
713.139
684.043
642.065
581.354
493.961
373.142
301.205
303.272
305.016
306.582
308.118
309.762
311.644
313.886
316.613
319.948
324.016
328.947
334.867
341.902
350.171
359.782
370.827
383.377
397.479
413.147
430.365
449.083
469.212
490.632
513.187
536.693
560.939
585.69
610.692
635.67
660.338
684.389
707.501
729.336
749.535
767.724
783.508
796.481
806.223
812.296
814.238
811.521
803.475
789.139
766.981
734.446
687.294
618.851
520.026
383.052
301.232
303.357
305.166
306.81
308.444
310.211
312.248
314.689
317.665
321.31
325.763
331.162
337.648
345.36
354.428
364.972
377.096
390.878
406.372
423.598
442.54
463.147
485.326
508.947
533.845
559.82
586.645
614.065
641.802
669.559
697.019
723.845
749.681
774.15
796.851
817.364
835.244
850.033
861.252
868.409
870.977
868.361
859.807
844.237
819.94
784.059
731.848
655.82
545.746
392.84
301.258
303.436
305.306
307.023
308.747
310.628
312.812
315.437
318.645
322.58
327.391
333.227
340.243
348.586
358.401
369.817
382.949
397.883
414.681
433.366
453.925
476.303
500.406
526.095
553.195
581.494
610.748
640.686
671.007
701.392
731.497
760.956
789.381
816.358
841.446
864.182
884.074
900.61
913.262
921.478
924.673
922.185
913.183
896.476
870.18
831.155
774.17
690.964
570.215
402.159
301.281
303.506
305.431
307.213
309.017
311.002
313.315
316.105
319.521
323.716
328.847
335.076
342.565
351.474
361.958
374.157
388.193
404.162
422.13
442.126
464.137
488.109
513.942
541.493
570.578
600.974
632.422
664.634
697.294
730.058
762.562
794.412
825.191
854.453
881.72
906.488
928.223
946.368
960.341
969.543
973.332
970.988
961.604
943.889
915.804
873.946
812.645
722.932
592.488
410.647
301.3
303.566
305.537
307.373
309.247
311.318
313.742
316.672
320.264
324.679
330.083
336.644
344.534
353.925
364.977
377.84
392.645
409.493
428.457
449.568
472.815
498.144
525.451
554.59
585.368
617.552
650.874
685.031
719.691
754.495
789.055
822.958
855.76
886.987
916.132
942.654
965.983
985.521
1000.64
1010.71
1015.03
1012.82
1003.13
984.567
954.963
910.69
845.698
750.408
611.642
417.951
301.315
303.613
305.619
307.5
309.427
311.566
314.076
317.117
320.847
325.435
331.052
337.874
346.081
355.848
367.347
380.733
396.141
413.682
433.428
455.416
479.636
506.033
534.502
564.891
597.004
630.6
665.4
701.093
737.335
773.75
809.938
845.467
879.873
912.66
943.297
971.215
995.814
1016.46
1032.51
1043.27
1048.01
1045.93
1036
1016.78
985.984
939.807
871.901
772.199
626.838
423.749
301.326
303.645
305.676
307.586
309.55
311.737
314.307
317.423
321.249
325.956
331.719
338.721
347.145
357.173
368.98
382.726
398.551
416.568
436.854
459.447
484.339
511.473
540.743
571.997
605.031
639.602
675.426
712.181
749.517
787.048
824.364
861.02
896.539
930.409
962.082
990.971
1016.45
1037.88
1054.57
1065.81
1070.86
1068.87
1058.78
1039.11
1007.49
959.998