/*--------------------------------*- C++ -*----------------------------------*\
| =========                 |                                                 |
| \\      /  F ield         | OpenFOAM: The Open Source CFD Toolbox           |
|  \\    /   O peration     | Version:  5.x                                   |
|   \\  /    A nd           | Web:      www.OpenFOAM.org                      |
|    \\/     M anipulation  |                                                 |
\*---------------------------------------------------------------------------*/
FoamFile
{
    version     2.0;
    format      ascii;
    class       volScalarField;
    location    "1.4";
    object      gradTz;
}
// * * * * * * * * * * * * * * * * * * * * * * * * * * * * * * * * * * * * * //

dimensions      [0 -1 0 1 0 0 0];

internalField   nonuniform List<scalar> 
25000
(
-6333.95
-6850.53
-6999.86
-7052.37
-7073.96
-7083.76
-7088.34
-7090.37
-7091.03
-7090.93
-7090.39
-7089.61
-7088.69
-7087.71
-7086.71
-7085.71
-7084.75
-7083.84
-7082.98
-7082.18
-7081.46
-7080.82
-7080.26
-7079.79
-7079.42
-7079.15
-7078.98
-7078.92
-7078.97
-7079.13
-7079.41
-7079.81
-7080.32
-7080.95
-7081.68
-7082.5
-7083.4
-7084.35
-7085.3
-7086.19
-7086.89
-7087.22
-7086.85
-7085.18
-7080.99
-7071.64
-7050.52
-6998.52
-6849.72
-6333.68
-6850.53
-7839.75
-8182.69
-8317.44
-8376.32
-8403.85
-8416.93
-8422.71
-8424.55
-8424.19
-8422.55
-8420.19
-8417.43
-8414.47
-8411.46
-8408.49
-8405.6
-8402.85
-8400.27
-8397.89
-8395.73
-8393.81
-8392.14
-8390.74
-8389.62
-8388.8
-8388.3
-8388.11
-8388.26
-8388.75
-8389.59
-8390.78
-8392.31
-8394.18
-8396.37
-8398.85
-8401.55
-8404.4
-8407.26
-8409.93
-8412.07
-8413.13
-8412.16
-8407.43
-8395.55
-8369.33
-8311.9
-8178.66
-7837.31
-6849.72
-6999.87
-8182.7
-8629.12
-8816.8
-8902.74
-8944.12
-8964.04
-8972.83
-8975.51
-8974.7
-8971.87
-8967.88
-8963.26
-8958.33
-8953.32
-8948.36
-8943.56
-8938.99
-8934.7
-8930.75
-8927.15
-8923.96
-8921.18
-8918.85
-8917
-8915.64
-8914.79
-8914.49
-8914.73
-8915.55
-8916.94
-8918.92
-8921.47
-8924.58
-8928.22
-8932.34
-8936.84
-8941.6
-8946.39
-8950.88
-8954.55
-8956.52
-8955.3
-8948.25
-8930.3
-8891.13
-8807.57
-8622.42
-8178.64
-6998.51
-7052.39
-8317.49
-8816.85
-9035.86
-9139.56
-9190.61
-9215.44
-9226.28
-9229.29
-9227.78
-9223.63
-9217.95
-9211.44
-9204.54
-9197.52
-9190.6
-9183.9
-9177.52
-9171.54
-9166.03
-9161.01
-9156.55
-9152.68
-9149.43
-9146.85
-9144.95
-9143.77
-9143.35
-9143.69
-9144.83
-9146.77
-9149.52
-9153.08
-9157.42
-9162.51
-9168.26
-9174.56
-9181.23
-9187.98
-9194.36
-9199.69
-9202.81
-9201.83
-9193.41
-9171.35
-9123.36
-9022.99
-8807.51
-8311.83
-7050.5
-7074.01
-8376.43
-8902.89
-9139.68
-9254.24
-9311.44
-9339.34
-9351.27
-9354.1
-9351.62
-9346
-9338.56
-9330.13
-9321.24
-9312.24
-9303.36
-9294.78
-9286.62
-9278.98
-9271.92
-9265.51
-9259.8
-9254.85
-9250.7
-9247.39
-9244.96
-9243.45
-9242.91
-9243.35
-9244.8
-9247.28
-9250.8
-9255.36
-9260.91
-9267.43
-9274.8
-9282.89
-9291.48
-9300.21
-9308.56
-9315.68
-9320.23
-9319.99
-9311.15
-9286.8
-9233.52
-9123.21
-8890.94
-8369.19
-7071.58
-7083.83
-8404.07
-8944.42
-9190.93
-9311.67
-9372.36
-9401.81
-9413.98
-9416.16
-9412.44
-9405.22
-9395.95
-9385.58
-9374.71
-9363.73
-9352.93
-9342.5
-9332.59
-9323.3
-9314.72
-9306.94
-9300.01
-9294
-9288.96
-9284.94
-9281.99
-9280.16
-9279.5
-9280.03
-9281.79
-9284.8
-9289.08
-9294.61
-9301.36
-9309.28
-9318.26
-9328.13
-9338.64
-9349.38
-9359.74
-9368.79
-9375.02
-9375.99
-9367.59
-9342.43
-9286.5
-9170.93
-8929.91
-8395.27
-7080.89
-7088.47
-8417.29
-8964.58
-9216.06
-9339.92
-9402.2
-9432.07
-9443.78
-9444.91
-9439.73
-9430.79
-9419.65
-9407.33
-9394.48
-9381.55
-9368.86
-9356.61
-9344.98
-9334.09
-9324.03
-9314.91
-9306.78
-9299.73
-9293.82
-9289.11
-9285.65
-9283.51
-9282.72
-9283.34
-9285.41
-9288.94
-9293.95
-9300.44
-9308.36
-9317.67
-9328.22
-9339.85
-9352.26
-9365.02
-9377.45
-9388.53
-9396.66
-9399.23
-9391.92
-9367.09
-9310.41
-9192.6
-8947.55
-8406.97
-7085.02
-7090.56
-8423.26
-8973.68
-9227.32
-9352.35
-9414.93
-9444.38
-9455.14
-9454.91
-9448.1
-9437.34
-9424.3
-9410.02
-9395.23
-9380.39
-9365.84
-9351.82
-9338.51
-9326.06
-9314.56
-9304.13
-9294.85
-9286.79
-9280.03
-9274.64
-9270.69
-9268.23
-9267.33
-9268.04
-9270.4
-9274.43
-9280.16
-9287.58
-9296.65
-9307.3
-9319.4
-9332.76
-9347.06
-9361.82
-9376.35
-9389.54
-9399.72
-9404.19
-9398.47
-9374.78
-9318.6
-9200.49
-8954.21
-8411.46
-7086.61
-7091.3
-8425.35
-8976.75
-9230.87
-9355.85
-9417.87
-9446.34
-9455.78
-9453.97
-9445.41
-9432.8
-9417.84
-9401.64
-9384.93
-9368.22
-9351.87
-9336.13
-9321.2
-9307.22
-9294.34
-9282.64
-9272.23
-9263.19
-9255.61
-9249.57
-9245.13
-9242.38
-9241.37
-9242.16
-9244.79
-9249.32
-9255.74
-9264.06
-9274.23
-9286.19
-9299.8
-9314.85
-9331
-9347.76
-9364.38
-9379.73
-9392.07
-9398.63
-9394.84
-9372.84
-9317.99
-9200.79
-8954.92
-8412.12
-7086.87
-7091.3
-8425.29
-8976.44
-9230.04
-9354.21
-9415.13
-9442.25
-9450.13
-9446.62
-9436.24
-9421.75
-9404.89
-9386.79
-9368.22
-9349.7
-9331.6
-9314.2
-9297.7
-9282.27
-9268.04
-9255.12
-9243.63
-9233.65
-9225.28
-9218.6
-9213.71
-9210.66
-9209.54
-9210.41
-9213.31
-9218.3
-9225.39
-9234.58
-9245.82
-9259.05
-9274.12
-9290.8
-9308.76
-9327.47
-9346.17
-9363.68
-9378.23
-9386.99
-9385.36
-9365.38
-9312.39
-9196.81
-8952.32
-8410.67
-7086.41
-7090.89
-8424.02
-8974.22
-9226.72
-9349.62
-9409.11
-9434.66
-9440.85
-9435.56
-9423.35
-9407
-9388.27
-9368.33
-9347.96
-9327.69
-9307.92
-9288.92
-9270.92
-9254.09
-9238.57
-9224.49
-9211.96
-9201.08
-9191.95
-9184.67
-9179.32
-9176
-9174.77
-9175.71
-9178.88
-9184.31
-9192.04
-9202.05
-9214.32
-9228.76
-9245.23
-9263.5
-9283.2
-9303.81
-9324.54
-9344.19
-9360.95
-9371.96
-9372.59
-9354.83
-9303.99
-9190.45
-8947.9
-8408.07
-7085.56
-7090.26
-8422.09
-8970.94
-9222.01
-9343.4
-9401.29
-9425.15
-9429.59
-9422.51
-9408.49
-9390.32
-9369.79
-9348.08
-9325.97
-9304.04
-9282.66
-9262.15
-9242.72
-9224.55
-9207.81
-9192.61
-9179.09
-9167.35
-9157.51
-9149.65
-9143.88
-9140.29
-9138.96
-9139.96
-9143.37
-9149.23
-9157.56
-9168.37
-9181.61
-9197.21
-9215.02
-9234.79
-9256.17
-9278.61
-9301.3
-9323.03
-9341.97
-9355.23
-9358.15
-9342.69
-9294.14
-9182.86
-8942.52
-8404.87
-7084.49
-7089.5
-8419.82
-8967.13
-9216.62
-9336.38
-9392.59
-9414.74
-9417.44
-9408.6
-9392.81
-9372.89
-9350.63
-9327.22
-9303.47
-9279.95
-9257.06
-9235.11
-9214.32
-9194.9
-9177
-9160.75
-9146.3
-9133.75
-9123.21
-9114.81
-9108.64
-9104.79
-9103.37
-9104.44
-9108.07
-9114.33
-9123.23
-9134.78
-9148.95
-9165.64
-9184.72
-9205.92
-9228.89
-9253.07
-9277.64
-9301.38
-9322.43
-9337.88
-9343.06
-9329.91
-9283.68
-9174.74
-8936.73
-8401.4
-7083.34
-7088.71
-8417.43
-8963.12
-9210.98
-9329.09
-9383.63
-9404.09
-9405.08
-9394.54
-9377.06
-9355.47
-9331.58
-9306.57
-9281.28
-9256.26
-9231.95
-9208.65
-9186.59
-9165.99
-9147
-9129.77
-9114.43
-9101.12
-9089.95
-9081.03
-9074.48
-9070.39
-9068.87
-9070
-9073.85
-9080.48
-9089.92
-9102.17
-9117.2
-9134.92
-9155.18
-9177.74
-9202.21
-9228.03
-9254.38
-9280.02
-9303.08
-9320.64
-9328
-9317.09
-9273.15
-9166.53
-8930.86
-8397.88
-7082.16
-7087.91
-8415.03
-8959.13
-9205.38
-9321.87
-9374.79
-9393.62
-9393
-9380.84
-9361.77
-9338.61
-9313.18
-9286.68
-9259.95
-9233.54
-9207.9
-9183.34
-9160.11
-9138.4
-9118.4
-9100.25
-9084.1
-9070.08
-9058.31
-9048.91
-9042.01
-9037.7
-9036.09
-9037.27
-9041.32
-9048.29
-9058.23
-9071.13
-9086.96
-9105.64
-9127.01
-9150.82
-9176.69
-9204.05
-9232.07
-9259.49
-9284.45
-9304
-9313.43
-9304.66
-9262.92
-9158.53
-8925.13
-8394.43
-7081.01
-7087.14
-8412.73
-8955.29
-9200.01
-9314.96
-9366.34
-9383.64
-9381.5
-9367.84
-9347.29
-9322.68
-9295.83
-9267.95
-9239.88
-9212.19
-9185.33
-9159.61
-9135.29
-9112.57
-9091.64
-9072.64
-9055.74
-9041.06
-9028.74
-9018.91
-9011.67
-9007.16
-9005.47
-9006.7
-9010.93
-9018.21
-9028.6
-9042.1
-9058.67
-9078.23
-9100.62
-9125.59
-9152.75
-9181.53
-9211.09
-9240.18
-9266.89
-9288.3
-9299.66
-9292.9
-9253.22
-9150.94
-8919.68
-8391.15
-7079.92
-7086.43
-8410.58
-8951.7
-9194.98
-9308.5
-9358.46
-9374.35
-9370.81
-9355.77
-9333.86
-9307.92
-9279.77
-9250.64
-9221.35
-9192.5
-9164.52
-9137.75
-9112.43
-9088.79
-9067.01
-9047.25
-9029.66
-9014.39
-9001.56
-8991.32
-8983.79
-8979.09
-8977.32
-8978.59
-8982.99
-8990.56
-9001.36
-9015.4
-9032.65
-9053
-9076.32
-9102.35
-9130.69
-9160.77
-9191.74
-9222.33
-9250.66
-9273.77
-9286.91
-9282
-9244.22
-9143.9
-8914.62
-8388.11
-7078.9
-7085.77
-8408.61
-8948.42
-9190.4
-9302.61
-9351.28
-9365.89
-9361.08
-9344.8
-9321.66
-9294.52
-9265.21
-9234.94
-9204.56
-9174.66
-9145.69
-9117.96
-9091.76
-9067.29
-9044.75
-9024.29
-9006.09
-8990.28
-8977
-8966.4
-8958.6
-8953.73
-8951.9
-8953.2
-8957.74
-8965.57
-8976.75
-8991.27
-9009.11
-9030.19
-9054.35
-9081.32
-9110.72
-9141.96
-9174.2
-9206.16
-9235.94
-9260.58
-9275.33
-9272.09
-9236.04
-9137.49
-8910.02
-8385.34
-7077.98
-7085.18
-8406.85
-8945.49
-9186.3
-9297.36
-9344.88
-9358.35
-9352.42
-9335.03
-9310.81
-9282.61
-9252.27
-9221
-9189.65
-9158.83
-9128.97
-9100.41
-9073.42
-9048.22
-9025.01
-9003.94
-8985.19
-8968.91
-8955.24
-8944.32
-8936.28
-8931.25
-8929.36
-8930.7
-8935.36
-8943.42
-8954.92
-8969.87
-8988.25
-9009.96
-9034.85
-9062.66
-9092.99
-9125.27
-9158.63
-9191.79
-9222.85
-9248.86
-9265.03
-9263.28
-9228.76
-9131.79
-8905.92
-8382.87
-7077.16
-7084.67
-8405.32
-8942.95
-9182.74
-9292.8
-9339.32
-9351.81
-9344.9
-9326.56
-9301.4
-9272.28
-9241.05
-9208.91
-9176.74
-9145.12
-9114.49
-9085.21
-9057.54
-9031.71
-9007.91
-8986.32
-8967.1
-8950.41
-8936.39
-8925.19
-8916.95
-8911.8
-8909.85
-8911.21
-8915.99
-8924.24
-8936.02
-8951.34
-8970.18
-8992.44
-9017.96
-9046.49
-9077.64
-9110.8
-9145.12
-9179.33
-9211.51
-9238.69
-9256.1
-9255.63
-9222.44
-9126.83
-8902.37
-8380.73
-7076.44
-7084.24
-8404.03
-8940.8
-9179.75
-9288.96
-9334.64
-9346.3
-9338.58
-9319.43
-9293.48
-9263.6
-9231.61
-9198.76
-9165.88
-9133.59
-9102.33
-9072.44
-9044.21
-9017.84
-8993.56
-8971.52
-8951.91
-8934.87
-8920.57
-8909.13
-8900.72
-8895.45
-8893.46
-8894.85
-8899.71
-8908.13
-8920.15
-8935.78
-8955
-8977.72
-9003.77
-9032.91
-9064.73
-9098.64
-9133.77
-9168.86
-9201.97
-9230.14
-9248.59
-9249.2
-9217.13
-9122.66
-8899.37
-8378.93
-7075.84
-7083.9
-8402.99
-8939.07
-9177.33
-9285.86
-9330.87
-9341.86
-9333.48
-9313.68
-9287.11
-9256.61
-9224.02
-9190.58
-9157.14
-9124.31
-9092.54
-9062.17
-9033.47
-9006.68
-8982
-8959.61
-8939.68
-8922.37
-8907.83
-8896.21
-8887.66
-8882.3
-8880.27
-8881.68
-8886.61
-8895.16
-8907.37
-8923.25
-8942.78
-8965.86
-8992.35
-9021.97
-9054.33
-9088.84
-9124.63
-9160.42
-9194.28
-9223.25
-9242.53
-9244.01
-9212.84
-9119.31
-8896.96
-8377.47
-7075.35
-7083.63
-8402.21
-8937.77
-9175.51
-9283.53
-9328.03
-9338.51
-9329.64
-9309.36
-9282.3
-9251.34
-9218.3
-9184.42
-9150.56
-9117.32
-9085.16
-9054.42
-9025.38
-8998.27
-8973.3
-8950.64
-8930.47
-8912.95
-8898.23
-8886.48
-8877.82
-8872.39
-8870.34
-8871.75
-8876.75
-8885.39
-8897.74
-8913.81
-8933.57
-8956.93
-8983.74
-9013.73
-9046.5
-9081.47
-9117.75
-9154.07
-9188.49
-9218.06
-9237.97
-9240.1
-9209.61
-9116.77
-8895.14
-8376.38
-7074.99
-7083.46
-8401.69
-8936.9
-9174.29
-9281.96
-9326.12
-9336.28
-9327.07
-9306.46
-9279.09
-9247.81
-9214.47
-9180.3
-9146.16
-9112.65
-9080.23
-9049.25
-9019.98
-8992.65
-8967.48
-8944.64
-8924.31
-8906.65
-8891.82
-8879.97
-8871.24
-8865.77
-8863.69
-8865.12
-8870.15
-8878.86
-8891.31
-8907.5
-8927.41
-8950.96
-8977.99
-9008.22
-9041.27
-9076.53
-9113.14
-9149.81
-9184.62
-9214.58
-9234.92
-9237.49
-9207.45
-9115.08
-8893.92
-8375.64
-7074.74
-7083.37
-8401.42
-8936.46
-9173.68
-9281.18
-9325.17
-9335.15
-9325.78
-9305.01
-9277.48
-9246.05
-9212.55
-9178.24
-9143.95
-9110.31
-9077.76
-9046.65
-9017.27
-8989.84
-8964.57
-8941.64
-8921.23
-8903.5
-8888.61
-8876.71
-8867.94
-8862.45
-8860.37
-8861.8
-8866.85
-8875.59
-8888.08
-8904.34
-8924.33
-8947.97
-8975.1
-9005.46
-9038.64
-9074.06
-9110.83
-9147.68
-9182.68
-9212.84
-9233.39
-9236.18
-9206.37
-9114.23
-8893.31
-8375.28
-7074.62
-7083.37
-8401.42
-8936.46
-9173.68
-9281.18
-9325.17
-9335.15
-9325.78
-9305.01
-9277.48
-9246.05
-9212.55
-9178.24
-9143.95
-9110.31
-9077.76
-9046.65
-9017.27
-8989.84
-8964.57
-8941.64
-8921.23
-8903.5
-8888.61
-8876.71
-8867.94
-8862.45
-8860.37
-8861.8
-8866.85
-8875.59
-8888.09
-8904.34
-8924.33
-8947.98
-8975.11
-9005.46
-9038.65
-9074.06
-9110.84
-9147.69
-9182.68
-9212.84
-9233.39
-9236.18
-9206.37
-9114.23
-8893.31
-8375.28
-7074.62
-7083.46
-8401.69
-8936.9
-9174.29
-9281.96
-9326.12
-9336.28
-9327.07
-9306.46
-9279.09
-9247.81
-9214.47
-9180.3
-9146.16
-9112.65
-9080.23
-9049.25
-9019.98
-8992.65
-8967.48
-8944.64
-8924.31
-8906.65
-8891.82
-8879.97
-8871.24
-8865.77
-8863.7
-8865.12
-8870.16
-8878.87
-8891.31
-8907.51
-8927.42
-8950.97
-8977.99
-9008.23
-9041.27
-9076.54
-9113.15
-9149.82
-9184.63
-9214.59
-9234.92
-9237.5
-9207.46
-9115.08
-8893.92
-8375.64
-7074.74
-7083.63
-8402.21
-8937.77
-9175.51
-9283.53
-9328.03
-9338.51
-9329.64
-9309.36
-9282.3
-9251.34
-9218.3
-9184.42
-9150.56
-9117.33
-9085.16
-9054.43
-9025.39
-8998.28
-8973.3
-8950.64
-8930.47
-8912.95
-8898.24
-8886.48
-8877.82
-8872.4
-8870.34
-8871.76
-8876.76
-8885.4
-8897.75
-8913.82
-8933.58
-8956.94
-8983.75
-9013.74
-9046.51
-9081.47
-9117.76
-9154.07
-9188.5
-9218.06
-9237.98
-9240.11
-9209.62
-9116.78
-8895.14
-8376.38
-7074.99
-7083.9
-8402.99
-8939.07
-9177.33
-9285.86
-9330.87
-9341.86
-9333.48
-9313.69
-9287.11
-9256.61
-9224.02
-9190.58
-9157.15
-9124.31
-9092.54
-9062.17
-9033.47
-9006.69
-8982.01
-8959.62
-8939.69
-8922.37
-8907.84
-8896.22
-8887.67
-8882.31
-8880.28
-8881.69
-8886.62
-8895.17
-8907.38
-8923.26
-8942.79
-8965.88
-8992.36
-9021.99
-9054.35
-9088.86
-9124.65
-9160.44
-9194.3
-9223.26
-9242.54
-9244.02
-9212.85
-9119.31
-8896.96
-8377.47
-7075.35
-7084.24
-8404.03
-8940.8
-9179.75
-9288.96
-9334.64
-9346.3
-9338.58
-9319.43
-9293.48
-9263.6
-9231.62
-9198.76
-9165.88
-9133.59
-9102.33
-9072.45
-9044.21
-9017.85
-8993.56
-8971.53
-8951.91
-8934.88
-8920.57
-8909.14
-8900.73
-8895.46
-8893.47
-8894.86
-8899.73
-8908.14
-8920.16
-8935.79
-8955.01
-8977.73
-9003.79
-9032.93
-9064.74
-9098.65
-9133.79
-9168.88
-9201.98
-9230.15
-9248.6
-9249.21
-9217.14
-9122.67
-8899.38
-8378.93
-7075.84
-7084.67
-8405.32
-8942.95
-9182.74
-9292.8
-9339.32
-9351.81
-9344.9
-9326.56
-9301.4
-9272.28
-9241.05
-9208.92
-9176.74
-9145.12
-9114.5
-9085.22
-9057.55
-9031.72
-9007.92
-8986.33
-8967.11
-8950.42
-8936.4
-8925.21
-8916.96
-8911.81
-8909.86
-8911.23
-8916
-8924.26
-8936.04
-8951.36
-8970.2
-8992.46
-9017.98
-9046.51
-9077.66
-9110.82
-9145.14
-9179.35
-9211.53
-9238.71
-9256.12
-9255.65
-9222.46
-9126.84
-8902.37
-8380.73
-7076.44
-7085.18
-8406.85
-8945.49
-9186.3
-9297.36
-9344.88
-9358.35
-9352.42
-9335.03
-9310.81
-9282.61
-9252.27
-9221
-9189.66
-9158.83
-9128.98
-9100.42
-9073.43
-9048.23
-9025.01
-9003.95
-8985.2
-8968.92
-8955.25
-8944.33
-8936.29
-8931.27
-8929.37
-8930.71
-8935.38
-8943.44
-8954.94
-8969.9
-8988.27
-9009.99
-9034.88
-9062.68
-9093.02
-9125.29
-9158.65
-9191.81
-9222.88
-9248.88
-9265.06
-9263.3
-9228.78
-9131.8
-8905.93
-8382.88
-7077.16
-7085.77
-8408.61
-8948.42
-9190.39
-9302.61
-9351.28
-9365.89
-9361.08
-9344.8
-9321.66
-9294.52
-9265.21
-9234.94
-9204.56
-9174.67
-9145.69
-9117.97
-9091.77
-9067.3
-9044.75
-9024.3
-9006.1
-8990.29
-8977.02
-8966.42
-8958.62
-8953.75
-8951.91
-8953.22
-8957.76
-8965.59
-8976.77
-8991.29
-9009.14
-9030.22
-9054.37
-9081.35
-9110.75
-9141.99
-9174.23
-9206.19
-9235.96
-9260.6
-9275.35
-9272.11
-9236.06
-9137.51
-8910.03
-8385.34
-7077.98
-7086.43
-8410.58
-8951.7
-9194.98
-9308.5
-9358.46
-9374.35
-9370.81
-9355.77
-9333.86
-9307.92
-9279.77
-9250.64
-9221.35
-9192.5
-9164.53
-9137.75
-9112.44
-9088.8
-9067.02
-9047.26
-9029.67
-9014.4
-9001.58
-8991.34
-8983.81
-8979.11
-8977.35
-8978.62
-8983.01
-8990.59
-9001.39
-9015.43
-9032.67
-9053.03
-9076.35
-9102.38
-9130.72
-9160.8
-9191.77
-9222.36
-9250.69
-9273.79
-9286.93
-9282.02
-9244.24
-9143.91
-8914.64
-8388.12
-7078.91
-7087.14
-8412.73
-8955.29
-9200.01
-9314.96
-9366.34
-9383.64
-9381.5
-9367.84
-9347.29
-9322.68
-9295.83
-9267.95
-9239.88
-9212.2
-9185.34
-9159.62
-9135.3
-9112.58
-9091.65
-9072.66
-9055.75
-9041.08
-9028.76
-9018.92
-9011.69
-9007.18
-9005.49
-9006.72
-9010.95
-9018.24
-9028.63
-9042.13
-9058.7
-9078.26
-9100.65
-9125.62
-9152.78
-9181.57
-9211.13
-9240.21
-9266.92
-9288.33
-9299.69
-9292.93
-9253.24
-9150.96
-8919.69
-8391.16
-7079.92
-7087.91
-8415.03
-8959.13
-9205.38
-9321.87
-9374.79
-9393.62
-9393
-9380.84
-9361.77
-9338.61
-9313.18
-9286.69
-9259.95
-9233.55
-9207.91
-9183.35
-9160.12
-9138.41
-9118.41
-9100.27
-9084.12
-9070.09
-9058.33
-9048.93
-9042.03
-9037.72
-9036.12
-9037.3
-9041.35
-9048.32
-9058.26
-9071.16
-9086.99
-9105.67
-9127.04
-9150.85
-9176.72
-9204.09
-9232.1
-9259.53
-9284.48
-9304.03
-9313.46
-9304.69
-9262.94
-9158.55
-8925.14
-8394.44
-7081.01
-7088.71
-8417.43
-8963.12
-9210.98
-9329.09
-9383.63
-9404.09
-9405.08
-9394.54
-9377.06
-9355.47
-9331.58
-9306.57
-9281.28
-9256.27
-9231.96
-9208.65
-9186.6
-9166
-9147.01
-9129.78
-9114.45
-9101.13
-9089.96
-9081.05
-9074.5
-9070.42
-9068.9
-9070.03
-9073.88
-9080.51
-9089.95
-9102.2
-9117.23
-9134.95
-9155.22
-9177.77
-9202.24
-9228.07
-9254.42
-9280.06
-9303.11
-9320.68
-9328.03
-9317.12
-9273.18
-9166.55
-8930.87
-8397.88
-7082.16
-7089.5
-8419.82
-8967.13
-9216.62
-9336.38
-9392.59
-9414.74
-9417.44
-9408.6
-9392.81
-9372.89
-9350.63
-9327.22
-9303.48
-9279.96
-9257.07
-9235.12
-9214.33
-9194.91
-9177.01
-9160.77
-9146.31
-9133.76
-9123.23
-9114.83
-9108.66
-9104.82
-9103.39
-9104.47
-9108.1
-9114.36
-9123.27
-9134.82
-9148.99
-9165.68
-9184.76
-9205.96
-9228.93
-9253.11
-9277.68
-9301.42
-9322.46
-9337.92
-9343.09
-9329.94
-9283.71
-9174.76
-8936.75
-8401.41
-7083.34
-7090.26
-8422.09
-8970.93
-9222.01
-9343.4
-9401.29
-9425.15
-9429.59
-9422.51
-9408.49
-9390.32
-9369.79
-9348.08
-9325.98
-9304.04
-9282.67
-9262.15
-9242.73
-9224.56
-9207.82
-9192.63
-9179.11
-9167.37
-9157.53
-9149.67
-9143.9
-9140.31
-9138.98
-9139.99
-9143.41
-9149.26
-9157.6
-9168.4
-9181.65
-9197.25
-9215.06
-9234.83
-9256.21
-9278.65
-9301.34
-9323.07
-9342.01
-9355.27
-9358.18
-9342.73
-9294.17
-9182.89
-8942.54
-8404.88
-7084.49
-7090.89
-8424.02
-8974.21
-9226.71
-9349.62
-9409.11
-9434.66
-9440.85
-9435.56
-9423.35
-9407
-9388.28
-9368.34
-9347.96
-9327.7
-9307.92
-9288.93
-9270.93
-9254.1
-9238.58
-9224.5
-9211.97
-9201.09
-9191.97
-9184.69
-9179.35
-9176.02
-9174.8
-9175.74
-9178.91
-9184.34
-9192.07
-9202.09
-9214.36
-9228.81
-9245.27
-9263.54
-9283.24
-9303.85
-9324.58
-9344.23
-9360.99
-9372
-9372.63
-9354.87
-9304.02
-9190.48
-8947.91
-8408.08
-7085.56
-7091.3
-8425.29
-8976.44
-9230.04
-9354.21
-9415.13
-9442.25
-9450.13
-9446.62
-9436.24
-9421.75
-9404.89
-9386.8
-9368.22
-9349.7
-9331.61
-9314.21
-9297.71
-9282.28
-9268.05
-9255.14
-9243.64
-9233.67
-9225.3
-9218.63
-9213.73
-9210.69
-9209.57
-9210.44
-9213.35
-9218.34
-9225.43
-9234.61
-9245.86
-9259.09
-9274.16
-9290.84
-9308.8
-9327.51
-9346.21
-9363.72
-9378.27
-9387.03
-9385.39
-9365.41
-9312.42
-9196.83
-8952.34
-8410.68
-7086.41
-7091.3
-8425.35
-8976.75
-9230.87
-9355.85
-9417.87
-9446.34
-9455.78
-9453.97
-9445.41
-9432.8
-9417.84
-9401.64
-9384.93
-9368.22
-9351.87
-9336.13
-9321.2
-9307.23
-9294.35
-9282.65
-9272.24
-9263.21
-9255.63
-9249.59
-9245.16
-9242.4
-9241.39
-9242.19
-9244.83
-9249.35
-9255.77
-9264.09
-9274.27
-9286.23
-9299.85
-9314.89
-9331.04
-9347.8
-9364.42
-9379.77
-9392.11
-9398.66
-9394.88
-9372.87
-9318.02
-9200.81
-8954.93
-8412.13
-7086.87
-7090.56
-8423.26
-8973.68
-9227.31
-9352.35
-9414.93
-9444.38
-9455.14
-9454.91
-9448.1
-9437.34
-9424.3
-9410.03
-9395.23
-9380.39
-9365.85
-9351.83
-9338.52
-9326.07
-9314.57
-9304.14
-9294.86
-9286.8
-9280.05
-9274.66
-9270.71
-9268.26
-9267.36
-9268.07
-9270.43
-9274.46
-9280.19
-9287.61
-9296.68
-9307.34
-9319.44
-9332.8
-9347.1
-9361.86
-9376.39
-9389.58
-9399.76
-9404.23
-9398.51
-9374.82
-9318.63
-9200.52
-8954.23
-8411.47
-7086.61
-7088.47
-8417.28
-8964.58
-9216.05
-9339.92
-9402.2
-9432.07
-9443.78
-9444.91
-9439.73
-9430.79
-9419.65
-9407.33
-9394.48
-9381.56
-9368.86
-9356.62
-9344.99
-9334.09
-9324.04
-9314.92
-9306.8
-9299.75
-9293.84
-9289.13
-9285.67
-9283.53
-9282.75
-9283.37
-9285.44
-9288.97
-9293.98
-9300.47
-9308.4
-9317.7
-9328.26
-9339.89
-9352.3
-9365.06
-9377.49
-9388.57
-9396.69
-9399.27
-9391.96
-9367.13
-9310.43
-9192.63
-8947.57
-8406.98
-7085.02
-7083.83
-8404.07
-8944.42
-9190.93
-9311.67
-9372.36
-9401.81
-9413.98
-9416.16
-9412.44
-9405.21
-9395.95
-9385.58
-9374.71
-9363.73
-9352.93
-9342.5
-9332.59
-9323.3
-9314.73
-9306.95
-9300.02
-9294.01
-9288.97
-9284.95
-9282.01
-9280.18
-9279.52
-9280.05
-9281.81
-9284.83
-9289.11
-9294.64
-9301.39
-9309.31
-9318.29
-9328.17
-9338.67
-9349.41
-9359.78
-9368.82
-9375.05
-9376.03
-9367.62
-9342.46
-9286.53
-9170.95
-8929.92
-8395.28
-7080.89
-7074.01
-8376.43
-8902.89
-9139.67
-9254.24
-9311.44
-9339.34
-9351.26
-9354.1
-9351.62
-9346
-9338.56
-9330.13
-9321.24
-9312.24
-9303.36
-9294.78
-9286.62
-9278.98
-9271.92
-9265.51
-9259.81
-9254.85
-9250.7
-9247.39
-9244.97
-9243.47
-9242.92
-9243.36
-9244.82
-9247.3
-9250.82
-9255.38
-9260.94
-9267.45
-9274.83
-9282.92
-9291.51
-9300.24
-9308.59
-9315.7
-9320.25
-9320.02
-9311.18
-9286.82
-9233.54
-9123.23
-8890.95
-8369.2
-7071.58
-7052.39
-8317.49
-8816.85
-9035.86
-9139.56
-9190.61
-9215.43
-9226.28
-9229.29
-9227.78
-9223.63
-9217.95
-9211.44
-9204.53
-9197.52
-9190.59
-9183.89
-9177.52
-9171.54
-9166.02
-9161.01
-9156.55
-9152.68
-9149.43
-9146.85
-9144.95
-9143.78
-9143.35
-9143.7
-9144.83
-9146.78
-9149.53
-9153.09
-9157.43
-9162.52
-9168.27
-9174.58
-9181.25
-9188
-9194.38
-9199.71
-9202.83
-9201.85
-9193.43
-9171.36
-9123.38
-9023
-8807.52
-8311.84
-7050.5
-6999.87
-8182.7
-8629.12
-8816.8
-8902.74
-8944.11
-8964.04
-8972.83
-8975.5
-8974.69
-8971.86
-8967.87
-8963.25
-8958.33
-8953.31
-8948.35
-8943.55
-8938.98
-8934.7
-8930.74
-8927.15
-8923.95
-8921.17
-8918.85
-8916.99
-8915.63
-8914.79
-8914.49
-8914.73
-8915.55
-8916.94
-8918.92
-8921.47
-8924.58
-8928.23
-8932.34
-8936.85
-8941.6
-8946.4
-8950.89
-8954.56
-8956.53
-8955.32
-8948.26
-8930.32
-8891.14
-8807.58
-8622.43
-8178.64
-6998.51
-6850.53
-7839.75
-8182.69
-8317.44
-8376.32
-8403.85
-8416.93
-8422.71
-8424.55
-8424.19
-8422.55
-8420.19
-8417.43
-8414.48
-8411.47
-8408.49
-8405.6
-8402.86
-8400.28
-8397.9
-8395.74
-8393.82
-8392.15
-8390.75
-8389.63
-8388.81
-8388.31
-8388.12
-8388.27
-8388.77
-8389.6
-8390.79
-8392.33
-8394.2
-8396.39
-8398.86
-8401.56
-8404.41
-8407.28
-8409.94
-8412.09
-8413.15
-8412.18
-8407.44
-8395.56
-8369.34
-8311.9
-8178.66
-7837.31
-6849.71
-6333.95
-6850.53
-6999.86
-7052.37
-7073.96
-7083.76
-7088.35
-7090.37
-7091.03
-7090.93
-7090.39
-7089.61
-7088.7
-7087.71
-7086.71
-7085.72
-7084.75
-7083.84
-7082.98
-7082.18
-7081.46
-7080.82
-7080.26
-7079.8
-7079.43
-7079.15
-7078.98
-7078.92
-7078.97
-7079.14
-7079.42
-7079.81
-7080.33
-7080.95
-7081.68
-7082.51
-7083.41
-7084.36
-7085.31
-7086.19
-7086.89
-7087.22
-7086.86
-7085.18
-7080.99
-7071.64
-7050.52
-6998.52
-6849.72
-6333.67
-1401.84
-2230.1
-2523.78
-2646.28
-2704.37
-2734.56
-2751.25
-2760.8
-2766.33
-2769.47
-2771.15
-2771.92
-2772.1
-2771.92
-2771.51
-2770.96
-2770.34
-2769.69
-2769.04
-2768.41
-2767.83
-2767.29
-2766.82
-2766.42
-2766.1
-2765.85
-2765.7
-2765.63
-2765.65
-2765.75
-2765.94
-2766.22
-2766.56
-2766.94
-2767.36
-2767.76
-2768.08
-2768.23
-2768.07
-2767.4
-2765.87
-2762.93
-2757.67
-2748.42
-2732.09
-2702.29
-2644.63
-2522.57
-2229.37
-1401.6
-2230.11
-3939.8
-4651.35
-4976.16
-5137.71
-5223.83
-5272.08
-5299.92
-5316.08
-5325.29
-5330.21
-5332.44
-5332.95
-5332.37
-5331.12
-5329.47
-5327.6
-5325.65
-5323.7
-5321.82
-5320.06
-5318.46
-5317.05
-5315.85
-5314.88
-5314.15
-5313.67
-5313.46
-5313.51
-5313.83
-5314.41
-5315.22
-5316.24
-5317.41
-5318.66
-5319.86
-5320.84
-5321.32
-5320.89
-5318.94
-5314.47
-5305.88
-5290.5
-5263.6
-5216.4
-5131.46
-4971.19
-4647.74
-3937.61
-2229.37
-2523.78
-4651.36
-5610.7
-6075.73
-6316.85
-6448.99
-6524.36
-6568.31
-6594.01
-6608.68
-6616.51
-6620
-6620.73
-6619.7
-6617.58
-6614.8
-6611.68
-6608.42
-6605.17
-6602.04
-6599.11
-6596.45
-6594.1
-6592.1
-6590.48
-6589.26
-6588.47
-6588.12
-6588.21
-6588.75
-6589.71
-6591.06
-6592.76
-6594.72
-6596.81
-6598.83
-6600.5
-6601.38
-6600.8
-6597.76
-6590.68
-6577.04
-6552.64
-6510.23
-6436.64
-6306.46
-6067.46
-5604.69
-4647.72
-2522.56
-2646.3
-4976.21
-6075.77
-6630.99
-6928.49
-7095.59
-7192.57
-7249.8
-7283.49
-7302.77
-7313.01
-7317.48
-7318.26
-7316.68
-7313.63
-7309.71
-7305.31
-7300.74
-7296.2
-7291.82
-7287.74
-7284.02
-7280.74
-7277.94
-7275.68
-7273.99
-7272.89
-7272.39
-7272.52
-7273.27
-7274.61
-7276.51
-7278.9
-7281.65
-7284.6
-7287.48
-7289.89
-7291.26
-7290.69
-7286.85
-7277.65
-7259.81
-7227.94
-7172.87
-7078.36
-6913.99
-6619.46
-6067.4
-4971.12
-2644.6
-2704.4
-5137.81
-6316.98
-6928.59
-7264.28
-7456.58
-7569.85
-7637.38
-7677.38
-7700.29
-7712.37
-7717.48
-7718.11
-7715.87
-7711.82
-7706.71
-7701.04
-7695.15
-7689.32
-7683.71
-7678.48
-7673.71
-7669.51
-7665.94
-7663.04
-7660.88
-7659.47
-7658.84
-7659.01
-7659.97
-7661.69
-7664.13
-7667.21
-7670.76
-7674.59
-7678.36
-7681.59
-7683.56
-7683.2
-7678.9
-7668.16
-7647.09
-7609.41
-7544.64
-7434.53
-7245.74
-6913.85
-6306.27
-5131.31
-2702.22
-2734.63
-5224.02
-6449.27
-7095.88
-7456.78
-7666.55
-7791.55
-7866.69
-7911.37
-7936.94
-7950.26
-7955.66
-7955.93
-7952.89
-7947.78
-7941.45
-7934.49
-7927.3
-7920.18
-7913.35
-7906.98
-7901.19
-7896.08
-7891.74
-7888.22
-7885.59
-7883.88
-7883.12
-7883.33
-7884.5
-7886.6
-7889.59
-7893.35
-7897.72
-7902.44
-7907.14
-7911.25
-7913.96
-7914.02
-7909.61
-7897.91
-7874.59
-7832.72
-7760.95
-7639.78
-7434.26
-7077.97
-6436.26
-5216.13
-2731.98
-2751.36
-5272.4
-6524.83
-7193.12
-7570.36
-7791.9
-7925.01
-8005.46
-8053.4
-8080.72
-8094.73
-8100.07
-8099.77
-8095.82
-8089.59
-8082.01
-8073.74
-8065.25
-8056.86
-8048.83
-8041.35
-8034.55
-8028.55
-8023.46
-8019.33
-8016.24
-8014.24
-8013.35
-8013.6
-8014.98
-8017.46
-8020.99
-8025.43
-8030.62
-8036.25
-8041.92
-8046.99
-8050.55
-8051.24
-8047.05
-8034.95
-8010.26
-7965.63
-7889.11
-7760.5
-7543.96
-7172.13
-6509.58
-5263.15
-2748.26
-2760.97
-5300.4
-6569.06
-7250.72
-7638.35
-7867.54
-8005.99
-8089.94
-8139.94
-8168.25
-8182.47
-8187.44
-8186.38
-8181.42
-8174.01
-8165.16
-8155.59
-8145.8
-8136.17
-8126.95
-8118.38
-8110.59
-8103.73
-8097.9
-8093.18
-8089.65
-8087.36
-8086.34
-8086.63
-8088.22
-8091.08
-8095.14
-8100.27
-8106.27
-8112.83
-8119.49
-8125.58
-8130.1
-8131.6
-8127.94
-8115.91
-8090.61
-8044.39
-7964.95
-7831.64
-7608.16
-7226.72
-6551.63
-5289.82
-2757.43
-2766.57
-5316.79
-6595.12
-7284.9
-7678.94
-7912.9
-8054.67
-8140.72
-8191.84
-8220.51
-8234.52
-8238.88
-8236.9
-8230.83
-8222.2
-8212.07
-8201.21
-8190.14
-8179.28
-8168.92
-8159.28
-8150.54
-8142.83
-8136.29
-8130.99
-8127.03
-8124.46
-8123.33
-8123.66
-8125.45
-8128.68
-8133.26
-8139.07
-8145.88
-8153.37
-8161.05
-8168.19
-8173.77
-8176.24
-8173.36
-8161.8
-8136.51
-8089.63
-8008.63
-7872.63
-7645.08
-7257.97
-6575.56
-5304.93
-2762.59
-2769.8
-5326.27
-6610.24
-7304.79
-7702.6
-7939.34
-8082.97
-8170.07
-8221.59
-8250.13
-8263.61
-8267.15
-8264.14
-8256.9
-8247.02
-8235.61
-8223.47
-8211.16
-8199.1
-8187.62
-8176.95
-8167.28
-8158.76
-8151.53
-8145.68
-8141.3
-8138.46
-8137.21
-8137.59
-8139.58
-8143.17
-8148.27
-8154.74
-8162.35
-8170.77
-8179.47
-8187.71
-8194.39
-8197.95
-8196.05
-8185.28
-8160.46
-8113.63
-8032.11
-7894.86
-7665.2
-7275.05
-6588.64
-5313.16
-2765.41
-2771.59
-5331.52
-6618.6
-7315.76
-7715.6
-7953.74
-8098.19
-8185.6
-8236.98
-8265.04
-8277.75
-8280.31
-8276.19
-8267.75
-8256.61
-8243.94
-8230.54
-8217.02
-8203.81
-8191.24
-8179.58
-8169.01
-8159.72
-8151.82
-8145.44
-8140.66
-8137.56
-8136.21
-8136.62
-8138.81
-8142.74
-8148.34
-8155.46
-8163.86
-8173.19
-8182.91
-8192.26
-8200.1
-8204.82
-8204.04
-8194.28
-8170.3
-8124.03
-8042.71
-7905.21
-7674.79
-7283.32
-6595.04
-5317.22
-2766.8
-2772.49
-5334.13
-6622.73
-7321.11
-7721.8
-7960.43
-8104.99
-8192.18
-8243.06
-8270.36
-8282.14
-8283.64
-8278.35
-8268.69
-8256.31
-8242.39
-8227.78
-8213.08
-8198.76
-8185.16
-8172.55
-8161.13
-8151.09
-8142.56
-8135.67
-8130.51
-8127.17
-8125.71
-8126.16
-8128.54
-8132.81
-8138.89
-8146.63
-8155.8
-8166.02
-8176.75
-8187.2
-8196.21
-8202.14
-8202.58
-8193.98
-8171.07
-8125.72
-8045.1
-7908.05
-7677.76
-7286.09
-6597.29
-5318.69
-2767.31
-2772.82
-5335.08
-6624.19
-7322.89
-7723.69
-7962.19
-8106.4
-8193.01
-8243.13
-8269.52
-8280.26
-8280.63
-8274.17
-8263.3
-8249.7
-8234.58
-8218.8
-8202.98
-8187.6
-8173.01
-8159.5
-8147.27
-8136.52
-8127.39
-8120.01
-8114.5
-8110.93
-8109.37
-8109.86
-8112.41
-8117
-8123.55
-8131.89
-8141.79
-8152.88
-8164.59
-8176.11
-8186.29
-8193.45
-8195.14
-8187.81
-8166.11
-8121.91
-8042.32
-7906.15
-7676.57
-7285.42
-6596.97
-5318.57
-2767.29
-2772.8
-5335
-6623.98
-7322.44
-7722.88
-7960.86
-8104.41
-8190.23
-8239.43
-8264.81
-8274.47
-8273.7
-8266.06
-8254.01
-8239.24
-8222.97
-8206.07
-8189.19
-8172.81
-8157.29
-8142.92
-8129.94
-8118.52
-8108.83
-8101
-8095.14
-8091.35
-8089.7
-8090.23
-8092.95
-8097.85
-8104.83
-8113.74
-8124.35
-8136.25
-8148.9
-8161.48
-8172.8
-8181.16
-8184.12
-8178.08
-8157.69
-8114.76
-8036.4
-7901.38
-7672.87
-7282.68
-6595.1
-5317.48
-2766.93
-2772.57
-5334.31
-6622.77
-7320.65
-7720.43
-7957.66
-8100.38
-8185.28
-8233.48
-8257.81
-8266.38
-8264.49
-8255.72
-8242.53
-8226.65
-8209.29
-8191.34
-8173.47
-8156.15
-8139.76
-8124.59
-8110.89
-8098.85
-8088.63
-8080.38
-8074.21
-8070.22
-8068.48
-8069.04
-8071.93
-8077.1
-8084.49
-8093.95
-8105.21
-8117.89
-8131.44
-8145.01
-8157.42
-8166.96
-8171.16
-8166.41
-8147.34
-8105.74
-8028.7
-7894.98
-7667.72
-7278.75
-6592.33
-5315.84
-2766.39
-2772.23
-5333.26
-6620.99
-7318.11
-7717.07
-7953.44
-8095.23
-8179.16
-8226.35
-8249.64
-8257.13
-8254.16
-8244.31
-8230.06
-8213.12
-8194.75
-8175.83
-8157.03
-8138.83
-8121.64
-8105.74
-8091.38
-8078.77
-8068.06
-8059.42
-8052.96
-8048.78
-8046.96
-8047.55
-8050.58