/*--------------------------------*- C++ -*----------------------------------*\
| =========                 |                                                 |
| \\      /  F ield         | OpenFOAM: The Open Source CFD Toolbox           |
|  \\    /   O peration     | Version:  5.x                                   |
|   \\  /    A nd           | Web:      www.OpenFOAM.org                      |
|    \\/     M anipulation  |                                                 |
\*---------------------------------------------------------------------------*/
FoamFile
{
    version     2.0;
    format      ascii;
    class       volScalarField;
    location    "1.4";
    object      gradTx;
}
// * * * * * * * * * * * * * * * * * * * * * * * * * * * * * * * * * * * * * //

dimensions      [0 -1 0 1 0 0 0];

internalField   nonuniform List<scalar> 
25000
(
5297.64
2574.4
1651.01
1241.83
1017.81
875.986
776.917
702.692
644.02
595.583
554.099
517.416
484.049
452.927
423.25
394.399
365.883
337.303
308.331
278.698
248.177
216.584
183.769
149.616
114.036
76.9687
38.3782
-1.74873
-43.4059
-86.5715
-131.213
-177.293
-224.776
-273.644
-323.904
-375.611
-428.896
-484.007
-541.366
-601.665
-666.016
-736.211
-815.19
-907.948
-1023.48
-1179.45
-1415.06
-1833.11
-2762.47
-5488.74
10863
6603.81
4649.69
3620.91
3007.74
2603.75
2316.01
2098.15
1924.87
1781.25
1657.9
1548.62
1449.08
1356.14
1267.44
1181.16
1095.84
1010.3
923.572
834.843
743.444
648.826
550.542
448.242
341.666
230.632
115.036
-5.16208
-129.941
-259.234
-392.941
-530.947
-673.145
-819.469
-969.935
-1124.7
-1284.13
-1448.95
-1620.38
-1800.42
-1992.28
-2201.1
-2435.22
-2708.61
-3045.69
-3492.05
-4139.96
-5195.28
-7167.34
-11435.6
14471.9
9697.32
7225.89
5796.91
4889.92
4268.25
3814.44
3465.45
3184.98
2950.87
2748.81
2569.13
2405.02
2251.49
2104.75
1961.84
1820.41
1678.51
1534.57
1387.26
1235.47
1078.31
915.027
745.061
567.977
383.48
191.4
-8.32242
-215.65
-430.463
-652.589
-881.827
-1117.98
-1360.94
-1610.68
-1867.44
-2131.78
-2404.82
-2688.43
-2985.75
-3301.72
-3644.22
-4025.83
-4467.15
-5002.98
-5695.1
-6659.84
-8132.95
-10634.2
-15423.8
17151.8
12170.8
9432.61
7754.59
6638.39
5846.38
5253.83
4790.14
4412.86
4095.09
3819.03
3572.33
3346.18
3134
2930.77
2732.53
2536.08
2338.82
2138.56
1933.5
1722.13
1503.2
1275.72
1038.87
792.093
534.967
267.269
-11.0756
-300.001
-599.332
-908.81
-1228.13
-1557.01
-1895.23
-2242.74
-2599.78
-2967.04
-3345.89
-3738.73
-4149.51
-4584.45
-5053.39
-5571.75
-6164.2
-6871.16
-7761.42
-8958.17
-10697.7
-13477.5
-18479.5
19311
14232.8
11347.9
9513.08
8250.21
7328.46
6623.37
6062.17
5599.62
5206.2
4861.82
4552.31
4267.31
3999.01
3741.34
3489.48
3239.51
2988.2
2732.85
2471.19
2201.34
1921.74
1631.13
1328.51
1013.15
684.547
342.429
-13.2842
-382.494
-764.955
-1160.31
-1568.15
-1988.04
-2419.68
-2862.9
-3317.91
-3785.42
-4266.95
-4765.19
-5284.6
-5832.23
-6419.04
-7062.08
-7788
-8639.45
-9686.89
-11052.8
-12966.3
-15904.4
-21009.5
21138.5
16008
13036.3
11099.6
9733.17
8713.25
7918.12
7275.35
6738.93
6278.13
5871.6
5503.96
5163.77
4842.27
4532.59
4229.18
3927.51
3623.78
3314.84
2998.02
2671.08
2332.18
1979.81
1612.8
1230.28
831.675
416.66
-14.8354
-462.665
-926.5
-1405.87
-1900.24
-2409.03
-2931.76
-3468.17
-4018.31
-4582.86
-5163.33
-5762.52
-6385.1
-7038.49
-7734.18
-8489.8
-9332.63
-10305.5
-11478.1
-12969.7
-15002
-18038.3
-23201.3
22733.2
17571.5
14544.9
12539.4
11098.4
10003.8
9136.88
8426.38
7826.57
7306.39
6843.87
6422.95
6031.47
5659.99
5301
4948.38
4597.07
4242.83
3882.08
3511.79
3129.41
2732.83
2320.35
1890.62
1442.66
975.805
489.722
-15.6448
-540.093
-1083.2
-1644.37
-2222.9
-2818.06
-3429.18
-4055.79
-4697.81
-5355.73
-6030.96
-6726.22
-7446.16
-8198.21
-8993.89
-9850.81
-10796
-11871.4
-13145.1
-14732.8
-16850.5
-19952.9
-25152.8
24152.3
18970.4
15906.9
13853
12357.2
11205.1
10280.6
9513.88
8859.91
8287.7
7775.12
7305.73
6866.93
6448.81
6043.39
5644.1
5245.45
4842.81
4432.24
4010.4
3574.47
3122.1
2651.4
2160.87
1649.44
1116.39
561.365
-15.6595
-614.41
-1234.36
-1874.76
-2534.75
-3213.39
-3909.81
-4623.31
-5353.56
-6100.85
-6866.34
-7652.56
-8463.92
-9307.63
-10194.9
-11142.9
-12177.9
-13340.9
-14697.8
-16361.4
-18543.6
-21693.8
-26919.3
25430.8
20235
17145.4
15056.3
13519.1
12322.1
11351.1
10537.6
9837.42
9219.79
8662.63
8149.37
7667.16
7205.79
6756.92
6313.63
5870.09
5421.34
4963.14
4491.88
4004.49
3498.44
2971.64
2422.5
1849.83
1252.89
631.323
-14.8591
-685.299
-1379.35
-2096.11
-2834.53
-3593.45
-4371.76
-5168.5
-5983.07
-6815.45
-7666.52
-8538.45
-9435.33
-10363.9
-11335
-12365.1
-13479.5
-14718
-16144.8
-17870.2
-20103.3
-23290
-28534.9
26591.5
21385.6
18277
16161.3
14592.1
13359.5
12350.6
11498.1
10758.3
10101
9504.3
8951.5
8429.68
7928.39
7439.08
6954.53
6468.66
5976.23
5472.75
4954.37
4417.82
3860.37
3279.83
2674.46
2043.04
1384.77
699.315
-13.2555
-752.497
-1517.63
-2307.59
-3121.12
-3956.83
-4813.35
-5689.43
-6584.15
-7497.16
-8428.97
-9381.35
-10358
-11365.1
-12412.8
-13517
-14702.1
-16006.5
-17492.9
-19270.1
-21544.7
-24760.8
-30020.8
27649.9
22436.4
19313.2
17177.1
15582.7
14321.3
13281.2
12395.9
11622.2
10930.3
10298.5
9710.19
9152.33
8614.4
8087.62
7564.62
7039.05
6505.48
5959.19
5396.13
4812.87
4206.53
3574.77
2915.79
2228.3
1511.49
765.051
-10.8915
-815.79
-1648.72
-2508.46
-3393.52
-4302.28
-5233.08
-6184.37
-7154.9
-8143.92
-9151.56
-10179.2
-11229.9
-12309.4
-13427.3
-14598.6
-15846.7
-17209.2
-18747.5
-20568.9
-22878.4
-26118.8
-31391.3
28616.6
23397.3
20262.8
18110.5
16495.8
15210.9
14144.9
13231.8
12428.9
11706.9
11044
10423.8
9833.33
9261.89
8700.6
8141.91
7579.33
7007.23
6420.71
5815.56
5188.2
4535.6
3855.34
3145.55
2404.88
1632.54
828.23
-7.83782
-875.014
-1772.23
-2698.08
-3650.86
-4628.7
-5629.65
-6651.83
-7693.64
-8753.97
-9832.51
-10930.1
-12049.5
-13195.7
-14377.7
-15609.7
-16914.6
-18328.7
-19912.5
-21772.1
-24111.7
-27372.7
-32655.7
29499.2
24275.3
21131.7
18966.4
17335.3
16031
14943.2
14006.5
13178.5
12430.1
11739.7
11091.1
10471.1
9869.18
9276.25
8684.66
8087.77
7479.8
6855.72
6211.17
5542.42
4846.36
4120.48
3362.84
2572.07
1747.39
888.547
-4.1893
-930.048
-1887.82
-2875.9
-3892.37
-4935.11
-6001.88
-7090.48
-8198.95
-9325.79
-10470.3
-11632.8
-12815.4
-14022.9
-15263.4
-16550.6
-17906.4
-19366.5
-20990.6
-22883.8
-25249.5
-28528.4
-33820.5
30303.2
25075.6
21924.7
19748.7
18104
16783.6
15677.5
14720.6
13870.9
13099.4
12384.8
11710.8
11064.4
10434.8
9813.03
9191.28
8562.79
7921.67
7262.76
6581.57
5874.28
5137.68
4369.19
3566.83
2729.21
1855.57
945.693
-0.0608814
-980.812
-1995.2
-3041.44
-4117.39
-5220.68
-6348.78
-7499.18
-8669.57
-9858.05
-11063.5
-12285.8
-13526.6
-14790.1
-16083.9
-17420.9
-18822.6
-20324
-21983.8
-23906.7
-26295.4
-29589.9
-34889.9
31032.6
25801.9
22645
20460.2
18804.2
17470.3
16348.6
15374.5
14506.1
13714.5
12978.6
12282.1
11611.9
10957.5
10309.6
9660.36
9002.99
8331.45
7640.48
6925.5
6182.6
5408.5
4600.54
3756.72
2875.66
1956.59
999.365
4.41733
-1027.26
-2094.15
-3194.29
-4325.34
-5484.67
-6669.48
-7876.94
-9104.4
-10349.6
-11611
-12888.1
-14182
-15496.5
-16838.5
-18220.6
-19663.6
-21201.8
-22893.5
-24842.7
-27251.6
-30559.9
-35866.9
31690.2
26457
23295.1
21103.1
19437.7
18092.3
16957.5
15968.7
15084.1
14275
13520.4
12804
12112.8
11436.1
10764.7
10090.6
9407.08
8707.87
7987.68
7241.82
6466.32
5657.84
4813.67
3931.79
3010.82
2050.01
1049.26
9.10497
-1069.36
-2184.48
-3334.12
-4515.73
-5726.45
-6963.2
-8222.87
-9502.49
-10799.4
-12111.8
-13438.6
-14780.8
-16141.3
-17526.8
-18949.4
-20429.3
-22000.4
-23720.4
-25692.9
-28119.6
-31440
-36753.2
32278.3
27043
23877
21678.9
20005.6
18650.7
17504.7
16503.3
15604.8
14780.6
14009.6
13275.8
12566
11869.6
11177.2
10481
9773.93
9049.82
8303.25
7529.49
6724.47
5884.82
5007.8
4091.36
3134.13
2135.39
1095.1
13.8564
-1107.13
-2266.06
-3460.64
-4688.14
-5945.45
-7229.27
-8536.22
-9863
-11206.7
-12565
-13936.6
-15322
-16723.8
-18148.3
-19606.9
-21119.7
-22719.9
-24464.9
-26458
-28900.5
-32231.5
-37550
32798.5
27561.4
24392
22188.9
20509
19146
17990.6
16978.5
16068.1
15230.9
14445.8
13696.8
12970.8
12257.1
11546.3
10830.5
10102.5
9356.29
8586.22
7787.55
6956.16
6088.63
5182.2
4234.81
3245.08
2212.35
1136.6
18.5253
-1140.57
-2338.77
-3573.61
-4842.2
-6141.22
-7467.14
-8816.32
-10185.2
-11570.6
-12969.8
-14381.3
-15805
-17243.4
-18702.3
-20192.8
-21734.5
-23360.3
-25127.3
-27138.4
-29594.6
-32935
-38258.1
33251.8
28013.4
24841.2
22633.8
20948.4
19578.7
18415.5
17394.3
16473.9
15625.6
14828.6
14066.6
13326.6
12597.8
11871
11138.1
10392
9626.38
8835.72
8015.19
7160.62
6268.56
5336.24
4361.58
3343.22
2280.51
1173.52
22.9698
-1169.72
-2402.52
-3672.84
-4977.61
-6313.34
-7676.3
-9062.61
-10468.5
-11890.4
-13325.5
-14771.8
-16229.2
-17699.5
-19188.4
-20706.6
-22273.4
-23921.4
-25707.5
-27734.1
-30202.3
-33550.6
-38877.9
33639.3
28399.7
25225.1
23014.4
21324.5
19949.3
18779.5
17750.9
16822.1
15964.6
15157.4
14384.4
13632.6
12891.1
12150.7
11403.2
10641.5
9859.32
9050.99
8211.66
7337.15
6423.98
5469.34
4471.17
3428.12
2339.57
1205.61
27.0557
-1194.61
-2457.25
-3758.16
-5094.11
-6461.48
-7856.33
-9274.59
-10712.3
-12165.6
-13631.5
-15107.8
-16593.9
-18091.6
-19606.1
-21148
-22736.2
-24403.1
-26205.3
-28245.2
-30723.4
-34078.6
-39409.3
33961.4
28720.9
25544.5
23331
21637.5
20257.8
19082.8
18048.1
17112.5
16247.5
15432
14650
13888.4
13136.5
12384.7
11625.1
10850.5
10054.5
9231.37
8376.35
7485.17
6554.33
5581.02
4563.17
3499.44
2389.23
1232.68
30.6612
-1215.28
-2502.92
-3829.44
-5191.51
-6585.34
-8006.87
-9451.86
-10916.1
-12395.7
-13887.3
-15388.5
-16898.6
-18419
-19954.9
-21516.5
-23122.5
-24805.1
-26620.7
-28671.6
-31158.1
-34518.9
-39852.4
34218.7
28977.4
25799.6
23584
21887.7
20504.5
19325.4
18286
17345.1
16474
15652.1
14862.9
14093.6
13333.3
12572.6
11803.3
11018.3
10211.2
9376.33
8508.73
7604.18
6659.16
5670.86
4637.2
3556.86
2429.25
1254.56
33.6795
-1231.76
-2539.49
-3886.58
-5269.62
-6684.71
-8127.66
-9594.08
-11079.7
-12580.3
-14092.5
-15613.7
-17142.9
-18681.6
-20234.5
-21811.7
-23431.9
-25127.1
-26953.4
-29012.9
-31506.1
-34871.4
-40207.2
34411.4
29169.6
25990.8
23773.6
22075.2
20689.5
19507.3
18464.5
17519.6
16644.2
15817.3
15022.9
14247.8
13481.2
12713.8
11937.3
11144.6
10329.2
9485.44
8608.39
7693.79
6738.11
5738.53
4692.98
3600.14
2459.44
1271.09
36.022
-1244.1
-2566.93
-3929.51
-5328.32
-6759.4
-8218.44
-9700.99
-11202.6
-12719
-14246.6
-15782.8
-17326.5
-18878.8
-20444.4
-22033.5
-23664.3
-25368.8
-27203.1
-29269.1
-31767.3
-35135.9
-40473.4
34539.8
29297.6
26118.1
23899.9
22200.2
20812.8
19628.6
18583.5
17636
16757.6
15927.6
15129.6
14350.8
13580
12808.1
12026.9
11229
10408
9558.35
8675
7753.69
6790.9
5783.78
4730.29
3629.09
2479.65
1282.17
37.6201
-1252.31
-2585.24
-3958.16
-5367.51
-6809.26
-8279.06
-9772.37
-11284.6
-12811.6
-14349.6
-15895.8
-17449
-19010.4
-20584.6
-22181.4
-23819.3
-25530
-27369.6
-29440
-31941.5
-35312.4
-40650.9
34603.9
29361.6
26181.8
23963.1
22262.7
20874.4
19689.3
18643
17694.2
16814.4
15982.8
15183.1
14402.3
13629.5
12855.4
12071.7
11271.2
10447.5
9594.87
8708.36
7783.7
6817.33
5806.45
4748.98
3643.6
2489.78
1287.73
38.4273
-1256.41
-2594.4
-3972.5
-5387.13
-6834.22
-8309.41
-9808.1
-11325.7
-12858
-14401.1
-15952.3
-17510.3
-19076.2
-20654.7
-22255.5
-23896.8
-25610.7
-27452.9
-29525.5
-32028.6
-35400.6
-40739.7
34603.9
29361.6
26181.8
23963.1
22262.7
20874.5
19689.3
18643
17694.2
16814.4
15982.8
15183.1
14402.3
13629.5
12855.4
12071.7
11271.2
10447.5
9594.87
8708.36
7783.7
6817.33
5806.45
4748.98
3643.6
2489.77
1287.72
38.42
-1256.42
-2594.41
-3972.51
-5387.14
-6834.24
-8309.42
-9808.11
-11325.7
-12858
-14401.1
-15952.3
-17510.3
-19076.3
-20654.7
-22255.5
-23896.8
-25610.7
-27452.9
-29525.5
-32028.6
-35400.6
-40739.7
34539.8
29297.7
26118.1
23899.9
22200.2
20812.8
19628.7
18583.5
17636
16757.7
15927.6
15129.7
14350.8
13580.1
12808.2
12026.9
11229
10408
9558.36
8675
7753.7
6790.9
5783.78
4730.28
3629.08
2479.64
1282.15
37.5983
-1252.33
-2585.27
-3958.19
-5367.54
-6809.3
-8279.1
-9772.4
-11284.7
-12811.7
-14349.6
-15895.8
-17449
-19010.4
-20584.6
-22181.4
-23819.3
-25530
-27369.6
-29440
-31941.5
-35312.3
-40650.9
34411.4
29169.6
25990.8
23773.6
22075.3
20689.5
19507.4
18464.5
17519.6
16644.2
15817.3
15022.9
14247.8
13481.3
12713.8
11937.4
11144.6
10329.2
9485.45
8608.4
7693.8
6738.11
5738.52
4692.97
3600.12
2459.42
1271.06
35.986
-1244.14
-2566.98
-3929.56
-5328.38
-6759.45
-8218.5
-9701.05
-11202.6
-12719.1
-14246.7
-15782.9
-17326.5
-18878.8
-20444.5
-22033.5
-23664.3
-25368.8
-27203
-29269.1
-31767.3
-35135.9
-40473.3
34218.7
28977.5
25799.7
23584.1
21887.8
20504.6
19325.4
18286.1
17345.1
16474.1
15652.1
14863
14093.7
13333.3
12572.6
11803.4
11018.4
10211.3
9376.36
8508.75
7604.19
6659.16
5670.85
4637.18
3556.83
2429.22
1254.52
33.6297
-1231.82
-2539.55
-3886.66
-5269.7
-6684.79
-8127.74
-9594.17
-11079.7
-12580.4
-14092.5
-15613.7
-17143
-18681.6
-20234.5
-21811.8
-23431.9
-25127.1
-26953.3
-29012.9
-31506.1
-34871.3
-40207.1
33961.5
28720.9
25544.6
23331.1
21637.6
20257.9
19082.9
18048.2
17112.6
16247.5
15432.1
14650.1
13888.5
13136.5
12384.8
11625.2
10850.5
10054.5
9231.4
8376.37
7485.18
6554.33
5581.01
4563.15
3499.41
2389.19
1232.63
30.598
-1215.35
-2503
-3829.53
-5191.6
-6585.45
-8006.98
-9451.97
-10916.2
-12395.8
-13887.4
-15388.6
-16898.7
-18419.1
-19955
-21516.5
-23122.5
-24805.1
-26620.7
-28671.5
-31158
-34518.8
-39852.3
33639.4
28399.7
25225.2
23014.5
21324.6
19949.4
18779.6
17751
16822.2
15964.7
15157.5
14384.5
13632.7
12891.2
12150.8
11403.3
10641.6
9859.37
9051.02
8211.68
7337.17
6423.98
5469.33
4471.15
3428.09
2339.52
1205.55
26.9799
-1194.7
-2457.35
-3758.27
-5094.23
-6461.6
-7856.45
-9274.73
-10712.4
-12165.7
-13631.6
-15107.9
-16594
-18091.6
-19606.1
-21148
-22736.2
-24403.1
-26205.3
-28245.2
-30723.4
-34078.5
-39409.2
33252
28013.5
24841.3
22634
20948.5
19578.8
18415.6
17394.4
16474
15625.7
14828.7
14066.6
13326.7
12597.9
11871.1
11138.2
10392.1
9626.43
8835.76
8015.21
7160.64
6268.56
5336.22
4361.55
3343.18
2280.46
1173.44
22.8821
-1169.82
-2402.63
-3672.97
-4977.74
-6313.48
-7676.45
-9062.76
-10468.6
-11890.5
-13325.6
-14772
-16229.3
-17699.6
-19188.5
-20706.7
-22273.4
-23921.4
-25707.4
-27734.1
-30202.1
-33550.5
-38877.7
32798.6
27561.6
24392.2
22189
20509.1
19146.1
17990.7
16978.6
16068.2
15231
14445.9
13696.9
12970.9
12257.2
11546.4
10830.5
10102.6
9356.34
8586.27
7787.58
6956.18
6088.63
5182.19
4234.78
3245.04
2212.28
1136.52
18.4269
-1140.68
-2338.89
-3573.76
-4842.35
-6141.38
-7467.31
-8816.49
-10185.4
-11570.7
-12969.9
-14381.4
-15805.2
-17243.5
-18702.4
-20192.9
-21734.5
-23360.3
-25127.2
-27138.3
-29594.5
-32934.8
-38258
32278.5
27043.2
23877.2
21679.1
20005.7
18650.8
17504.9
16503.4
15604.9
14780.7
14009.7
13275.9
12566.1
11869.7
11177.3
10481.1
9774.01
9049.89
8303.3
7529.52
6724.49
5884.82
5007.78
4091.33
3134.08
2135.32
1095.01
13.7482
-1107.25
-2266.2
-3460.8
-4688.31
-5945.63
-7229.46
-8536.41
-9863.19
-11206.9
-12565.1
-13936.8
-15322.1
-16723.9
-18148.4
-19607
-21119.7
-22719.9
-24464.9
-26457.9
-28900.3
-32231.4
-37549.8
31690.4
26457.2
23295.3
21103.3
19437.8
18092.5
16957.7
15968.8
15084.2
14275.1
13520.5
12804.1
12112.9
11436.2
10764.8
10090.7
9407.16
8707.94
7987.73
7241.86
6466.35
5657.84
4813.66
3931.76
3010.76
2049.93
1049.17
8.98837
-1069.5
-2184.64
-3334.29
-4515.92
-5726.64
-6963.4
-8223.08
-9502.69
-10799.6
-12112
-13438.8
-14780.9
-16141.4
-17526.9
-18949.5
-20429.3
-22000.4
-23720.3
-25692.8
-28119.5
-31439.9
-36753
31032.7
25802
22645.1
20460.4
18804.4
17470.4
16348.8
15374.7
14506.2
13714.6
12978.7
12282.2
11612.1
10957.6
10309.7
9660.46
9003.07
8331.52
7640.54
6925.55
6182.63
5408.5
4600.52
3756.69
2875.6
1956.51
999.263
4.29374
-1027.4
-2094.31
-3194.47
-4325.54
-5484.88
-6669.7
-7877.16
-9104.62
-10349.8
-11611.2
-12888.3
-14182.2
-15496.6
-16838.6
-18220.7
-19663.6
-21201.8
-22893.4
-24842.6
-27251.4
-30559.7
-35866.6
30303.4
25075.7
21924.8
19748.8
18104.1
16783.7
15677.6
14720.7
13871
13099.5
12384.9
11710.9
11064.5
10434.9
9813.14
9191.38
8562.89
7921.75
7262.82
6581.61
5874.3
5137.69
4369.18
3566.79
2729.15
1855.49
945.587
-0.189887
-980.963
-1995.37
-3041.63
-4117.6
-5220.9
-6349.01
-7499.42
-8669.8
-9858.28
-11063.7
-12286
-13526.8
-14790.3
-16084
-17421
-18822.7
-20324
-21983.8
-23906.6
-26295.2
-29589.7
-34889.7
29499.4
24275.5
21131.9
18966.5
17335.4
16031.2
14943.4
14006.6
13178.7
12430.2
11739.8
11091.2
10471.3
9869.31
9276.36
8684.77
8087.87
7479.89
6855.79
6211.22
5542.45
4846.37
4120.47
3362.8
2572.01
1747.31
888.438
-4.32201
-930.204
-1887.99
-2876.09
-3892.59
-4935.34
-6002.12
-7090.73
-8199.2
-9326.03
-10470.5
-11633
-12815.6
-14023.1
-15263.6
-16550.7
-17906.4
-19366.5
-20990.5
-22883.7
-25249.3
-28528.2
-33820.3
28616.8
23397.5
20262.9
18110.6
16496
15211.1
14145.1
13231.9
12429.1
11707
11044.1
10424
9833.47
9262.02
8700.72
8142.02
7579.43
7007.31
6420.78
5815.62
5188.23
4535.61
3855.33
3145.51
2404.82
1632.45
828.12
-7.97237
-875.172
-1772.41
-2698.28
-3651.08
-4628.93
-5629.89
-6652.08
-7693.9
-8754.22
-9832.75
-10930.4
-12049.7
-13195.9
-14377.9
-15609.9
-16914.6
-18328.7
-19912.4
-21772
-24111.5
-27372.5
-32655.5
27650.1
22436.6
19313.4
17177.3
15582.9
14321.5
13281.4
12396
11622.4
10930.5
10298.7
9710.33
9152.48
8614.53
8087.75
7564.73
7039.15
6505.57
5959.26
5396.19
4812.91
4206.54
3574.76
2915.76
2228.24
1511.41
764.941
-11.0259
-815.948
-1648.9
-2508.66
-3393.74
-4302.52
-5233.33
-6184.63
-7155.15
-8144.18
-9151.81
-10179.4
-11230.1
-12309.6
-13427.5
-14598.7
-15846.8
-17209.2
-18747.5
-20568.7
-22878.3
-26118.6
-31391
26591.7
21385.8
18277.1
16161.5
14592.3
13359.6
12350.7
11498.2
10758.5
10101.2
9504.45
8951.65
8429.82
7928.53
7439.2
6954.65
6468.77
5976.32
5472.83
4954.43
4417.85
3860.39
3279.82
2674.43
2042.98
1384.69
699.208
-13.3876
-752.653
-1517.81
-2307.79
-3121.34
-3957.07
-4813.6
-5689.69
-6584.41
-7497.42
-8429.21
-9381.59
-10358.2
-11365.3
-12413
-13517.1
-14702.1
-16006.5
-17492.9
-19270
-21544.6
-24760.6
-30020.6
25430.9
20235.1
17145.6
15056.4
13519.2
12322.2
11351.2
10537.8
9837.58
9219.94
8662.78
8149.51
7667.31
7205.93
6757.05
6313.75
5870.2
5421.43
4963.22
4491.94
4004.53
3498.45
2971.64
2422.47
1849.78
1252.81
631.22
-14.9866
-685.451
-1379.52
-2096.31
-2834.74
-3593.68
-4372
-5168.75
-5983.33
-6815.71
-7666.76
-8538.68
-9435.54
-10364.1
-11335.2
-12365.2
-13479.6
-14718.1
-16144.7
-17870.1
-20103.1
-23289.8
-28534.6
24152.5
18970.5
15907
13853.1
12357.3
11205.2
10280.7
9514.03
8860.05
8287.85
7775.27
7305.87
6867.06
6448.94
6043.51
5644.22
5245.56
4842.9
4432.32
4010.46
3574.51
3122.12
2651.4
2160.85
1649.39
1116.32
561.269
-15.78
-614.554
-1234.52
-1874.95
-2534.95
-3213.61
-3910.04
-4623.55
-5353.81
-6101.09
-6866.58
-7652.79
-8464.13
-9307.82
-10195.1
-11143
-12178
-13340.9
-14697.7
-16361.3
-18543.4
-21693.6
-26919.1
22733.4
17571.7
14545
12539.5
11098.6
10004
9137.02
8426.52
7826.71
7306.52
6844.01
6423.09
6031.6
5660.12
5301.12
4948.49
4597.18
4242.92
3882.16
3511.85
3129.45
2732.86
2320.35
1890.6
1442.62
975.74
489.634
-15.7558
-540.226
-1083.35
-1644.54
-2223.09
-2818.26
-3429.4
-4056.02
-4698.04
-5355.96
-6031.19
-6726.44
-7446.36
-8198.39
-8994.04
-9850.92
-10796
-11871.4
-13145
-14732.7
-16850.3
-19952.7
-25152.6
21138.6
16008.1
13036.4
11099.7
9733.3
8713.38
7918.25
7275.48
6739.06
6278.26
5871.73
5504.08
5163.89
4842.39
4532.7
4229.29
3927.6
3623.87
3314.91
2998.07
2671.12
2332.2
1979.81
1612.78
1230.25
831.618
416.582
-14.9345
-462.784
-926.639
-1406.03
-1900.41
-2409.22
-2931.96
-3468.37
-4018.53
-4583.07
-5163.54
-5762.72
-6385.29
-7038.66
-7734.32
-8489.91
-9332.7
-10305.5
-11478.1
-12969.6
-15001.9
-18038.1
-23201.2
19311.1
14232.9
11348
9513.2
8250.33
7328.58
6623.49
6062.28
5599.73
5206.31
4861.93
4552.42
4267.42
3999.11
3741.44
3489.57
3239.6
2988.28
2732.91
2471.24
2201.38
1921.76
1631.13
1328.5
1013.12
684.5
342.363
-13.369
-382.598
-765.076
-1160.45
-1568.3
-1988.21
-2419.85
-2863.09
-3318.1
-3785.61
-4267.14
-4765.37
-5284.77
-5832.38
-6419.17
-7062.18
-7788.07
-8639.48
-9686.87
-11052.7
-12966.2
-15904.3
-21009.3
17151.9
12170.9
9432.72
7754.69
6638.49
5846.48
5253.92
4790.23
4412.95
4095.19
3819.12
3572.42
3346.27
3134.09
2930.85
2732.61
2536.16
2338.88
2138.62
1933.55
1722.16
1503.22
1275.72
1038.87
792.071
534.93
267.216
-11.1441
-300.085
-599.431
-908.922
-1228.26
-1557.15
-1895.38
-2242.89
-2599.94
-2967.2
-3346.05
-3738.88
-4149.65
-4584.58
-5053.5
-5571.83
-6164.26
-6871.19
-7761.41
-8958.11
-10697.7
-13477.4
-18479.3
14471.9
9697.4
7225.97
5796.99
4889.99
4268.32
3814.51
3465.52
3185.05
2950.94
2748.87
2569.2
2405.09
2251.55
2104.81
1961.9
1820.46
1678.56
1534.61
1387.29
1235.5
1078.32
915.033
745.056
567.961
383.453
191.361
-8.37314
-215.712
-430.536
-652.673
-881.919
-1118.09
-1361.04
-1610.79
-1867.56
-2131.9
-2404.93
-2688.55
-2985.85
-3301.82
-3644.3
-4025.9
-4467.19
-5003
-5695.09
-6659.79
-8132.88
-10634.1
-15423.7
10863.1
6603.86
4649.73
3620.96
3007.79
2603.79
2316.05
2098.19
1924.91
1781.29
1657.95
1548.66
1449.12
1356.17
1267.48
1181.19
1095.87
1010.33
923.597
834.863
743.459
648.835
550.545
448.239
341.656
230.615
115.011
-5.19372
-129.98
-259.28
-392.993
-531.004
-673.207
-819.535
-970.004
-1124.77
-1284.2
-1449.03
-1620.45
-1800.49
-1992.34
-2201.15
-2435.26
-2708.63
-3045.7
-3492.05
-4139.93
-5195.24
-7167.28
-11435.5
5297.66
2574.41
1651.03
1241.84
1017.83
876.001
776.932
702.706
644.033
595.597
554.113
517.43
484.062
452.94
423.262
394.411
365.893
337.312
308.339
278.704
248.181
216.586
183.77
149.614
114.032
76.9624
38.3695
-1.75974
-43.4192
-86.5869
-131.23
-177.312
-224.797
-273.666
-323.927
-375.634
-428.92
-484.031
-541.389
-601.686
-666.035
-736.228
-815.202
-907.956
-1023.49
-1179.45
-1415.05
-1833.09
-2762.46
-5488.71
2581.57
1900.77
1444.22
1164.01
983.381
858.982
767.981
697.904
641.53
594.433
553.756
517.566
484.5
453.557
423.979
395.174
366.666
338.069
309.062
279.378
248.797
217.134
184.243
150.007
114.339
77.1796
38.4931
-1.73254
-43.4901
-86.7562
-131.496
-177.67
-225.24
-274.179
-324.488
-376.211
-429.461
-484.458
-541.581
-601.45
-665.056
-733.97
-810.704
-899.364
-1006.88
-1145.46
-1337.71
-1626.81
-2089.35
-2773.17
6624.46
5251.88
4158.06
3416.43
2912.32
2555.34
2290.22
2084.24
1917.63
1777.91
1656.94
1549.11
1450.45
1358.04
1269.63
1183.48
1098.19
1012.6
925.763
836.884
745.304
650.477
551.963
449.416
342.576
231.266
115.382
-5.11207
-130.192
-259.787
-393.79
-532.079
-674.534
-821.074
-971.691
-1126.5
-1285.84
-1450.33
-1621.06
-1799.84
-1989.52
-2194.6
-2422.22
-2683.88
-2998.47
-3397.94
-3936.88
-4705.13
-5816.93
-7198.56
9730.22
8039.02
6570.14
5505.93
4747.96
4194.16
3774.3
3443.6
3173.58
2945.67
2747.39
2570.04
2407.37
2254.69
2108.42
1965.72
1824.32
1682.34
1538.22
1390.65
1238.56
1081.05
917.391
747.012
569.491
384.534
191.976
-8.23922
-216.067
-431.382
-654.002
-883.71
-1120.3
-1363.61
-1613.61
-1870.47
-2134.66
-2407.16
-2689.67
-2984.97
-3297.47
-3634.05
-4005.5
-4428.77
-4930.88
-5555.31
-6371.18
-7479.66
-8978.42
-10684.7
12214.8
10369.9
8685.99
7408.65
6463.75
5752.99
5202.42
4761.93
4398.13
4088.49
3817.41
3573.82
3349.57
3138.53
2935.93
2737.97
2541.56
2344.17
2143.65
1938.24
1726.44
1507.03
1279.01
1041.6
794.204
536.437
268.071
-10.9597
-300.584
-600.616
-910.782
-1230.77
-1560.25
-1898.98
-2246.86
-2604.05
-2971.12
-3349.28
-3740.67
-4148.79
-4579.17
-5040.39
-5545.65
-6115.25
-6780.54
-7589.81
-8615.48
-9954.55
-11680.1
-13546.1
14287
12361.3
10550.6
9133.23
8053.73
7221.41
6563.71
6029.25
5582.49
5198.71
4860.31
4554.54
4271.85
4004.93
3748.01
3496.48
3246.55
2995.06
2739.37
2477.26
2206.86
1926.64
1635.34
1331.99
1015.85
686.428
343.456
-13.1363
-383.241
-766.599
-1162.84
-1571.52
-1992.2
-2424.5
-2868.21
-3323.44
-3790.76
-4271.49
-4768
-5284.24
-5826.43
-6404.13
-7031.85
-7731.48
-8535.93
-9494.29
-10677.1
-12173.5
-14037.4
-15990
16071.5
14099.4
12210.4
10699.1
9522.58
8597
7852.78
7239.21
6720.28
6270.27
5870.5
5507.1
5169.54
4849.62
4540.79
4237.75
3936.09
3632.13
3322.77
3005.39
2677.79
2338.13
1984.93
1617.03
1233.56
833.959
417.907
-14.6565
-463.573
-928.501
-1408.95
-1904.35
-2414.1
-2937.66
-3474.68
-4025.13
-4589.51
-5169.1
-5766.36
-6385.38
-7032.68
-7718.22
-8456.94
-9271.11
-10193.6
-11272.2
-12574.2
-14181.4
-16135.3
-18140
17643.6
15642.8
13702.5
12126.5
10879.1
9881.73
9067.92
8388.3
7807.18
7298.63
6843.46
6427.17
6038.57
5668.81
5310.74
4958.5
4607.18
4252.65
3891.4
3520.45
3137.28
2739.82
2326.36
1895.58
1446.51
978.484
491.184
-15.4359
-541.161
-1085.55
-1647.99
-2227.74
-2824.03
-3436.13
-4063.5
-4705.92
-5363.73
-6038.06
-6731.26
-7447.37
-8192.86
-8977.65
-9816.57
-10731.5
-11754.3
-12931.2
-14325.8
-16014.4
-18030.6
-20069.7
19050.4
17030.4
15055.1
13432.8
12132.5
11079.5
10209.6
9474.86
8840.41
8280.44
7775.63
7311.16
6875.42
6459.13
6054.68
5655.76
5257.06
4854.07
4442.91
4020.31
3583.48
3130.09
2658.27
2166.55
1653.84
1119.45
563.037
-15.4215
-615.633
-1237.05
-1878.91
-2540.3
-3220.25
-3917.82
-4632.21
-5362.99
-6110.23
-6874.84
-7658.93
-8466.29
-9303.12
-10179
-11108.3
-12112.1
-13221.1
-14479.4
-15948
-17699
-19761.2
-21824.9
20322.2
18288.9
16288.5
14632.1
13291.6
12194.7
11279.2
10498.5
9818.32
9213.34
8664.25
8156.12
7677.11
7217.62
6769.74
6326.81
5883.18
5434
4975.13
4503.01
4014.61
3507.4
2979.35
2428.86
1854.77
1256.33
633.198
-14.593
-686.674
-1382.37
-2100.78
-2840.78
-3601.18
-4380.81
-5178.59
-5993.81
-6826.23
-7676.46
-8546.25
-9439.04
-10360.6
-11320
-12330.8
-13413.4
-14597.1
-15924.3
-17453.6
-19254.4
-21352.2
-23434.7
21479.5
19436.4
17417.5
15735.1
14363.3
13231.4
12278.6
11459.3
10740
10095.6
9507.18
8959.65
8441.1
7941.74
7453.41
6969.2
6483.18
5990.26
5486.02
4966.67
4428.99
3870.28
3288.35
2681.5
2048.49
1388.57
701.387
-12.9623
-754.018
-1520.98
-2312.75
-3128.04
-3965.41
-4823.41
-5700.68
-6596.18
-7509.34
-8440.38
-9390.66
-10363.1
-11363.1
-12399
-13483.6
-14636.4
-15885.6
-17271.9
-18852.3
-20694.1
-22820.7
-24918.1
22536.4
20485.9
18452.7
16750.3
15353.7
14193.4
13209.7
12357.9
11604.9
10926.1
10302.7
9719.76
9165.23
8629.24
8103.44
7580.73
7054.96
6520.82
5973.69
5409.57
4825.07
4217.34
3584.07
2923.47
2234.25
1515.63
767.311
-10.5722
-817.451
-1652.38
-2514.11
-3401.1
-4311.68
-5244.12
-6196.76
-7168.2
-8157.49
-9164.46
-10190
-11236.6
-12309
-13414.9
-14566.5
-15782.1
-17089.1
-18527
-20151.2
-22027.5
-24178.2
-26287.9
23502.8
21446.5
19402.1
17683.7
16267.1
15083.6
14074.2
13194.8
12412.8
11704
11049.6
10434.8
9847.7
9278.18
8717.84
8159.41
7596.57
7023.83
6436.38
5830.08
5201.37
4547.27
3865.38
3153.83
2411.3
1637.01
830.67
-7.49318
-876.809
-1776.19
-2704.19
-3659.06
-4638.89
-5641.63
-6665.31
-7708.18
-8768.9
-9846.87
-10942.5
-12057.8
-13196.9
-14366.8
-15579.2
-16851.4
-18209.8
-19693
-21355.3
-23261.5
-25432.7
-27552.8
24385.8
22325
20271.6
18540.3
17107.4
15904.6
14873.6
13970.7
13163.7
12428.5
11746.7
11103.5
10486.9
9886.88
9294.87
8703.49
8106.28
7497.6
6872.51
6226.71
5556.52
4858.85
4131.22
3371.7
2578.95
1752.18
891.157
-3.82039
-931.971
-1892.06
-2882.44
-3901.17
-4946.05
-6014.76
-7105.01
-8214.67
-9342.03
-10486
-11646.7
-12825.4
-14025.7
-15254.2
-16521.6
-17844.8
-19249.2
-20772.5
-22468.3
-24400.5
-26589.5
-28718.7
25190.6
23126
21065.4
19323.6
17877.1
16658.3
15609
14686
13857.4
13099.2
12393.2
11724.6
11081.5
10453.9
9832.96
9211.36
8582.5
7940.6
7280.6
6598.07
5889.24
5150.94
4380.59
3576.23
2736.51
1860.65
948.465
0.331269
-982.853
-1999.7
-3048.39
-4126.75
-5232.33
-6362.52
-7514.71
-8686.42
-9875.54
-11080.6
-12301.1
-13538.1
-14794.5
-16076.3
-17393.7
-18762.7
-20208.3
-21767.4
-23492.8
-25447.9
-27652.6
-29789.7
25921
23853.4
21786.8
20036.2
18578.5
17346.2
16281.5
15341.2
14493.9
13715.6
12988.3
12297.2
11630.4
10977.8
10330.7
9681.62
9023.81
8351.43
7659.3
6942.91
6198.38
5422.47
4612.55
3766.63
2883.35
1961.94
1002.29
4.8316
-1029.41
-2098.89
-3201.63
-4335.22
-5496.98
-6684.01
-7893.39
-9122.31
-10368.3
-11629.4
-12904.8
-14195
-15502.4
-16832.6
-18195
-19605.4
-21087.8
-22678.8
-24430.5
-26405.8
-28624.2
-30768.2
26579.7
24509.6
22438.1
20680.2
19213.1
17969.5
16891.6
15936.6
15073.1
14277.4
13531.3
12820.3
12132.5
11457.6
10787
10113
9428.94
8728.83
8007.4
7260.06
6482.85
5672.47
4826.25
3942.17
3018.87
2055.61
1052.32
9.54012
-1071.61
-2189.46
-3341.81
-4526.09
-5739.36
-6978.47
-8240.19
-9521.38
-10819.2
-12131.4
-13456.7
-14795.1
-16148.7
-17522.5
-18925.4
-20372.7
-21888
-23507.3
-25282.4
-27275.6
-29506.1
-31656.3
27168.9
25096.7
23021.1
21257.2
19782.2
18529
17440
16472.4
15595
14784.1
14021.8
13293.3
12586.8
11892.1
11200.6
10504.4
9796.74
9071.67
8323.8
7548.48
6741.68
5900.05
5020.89
4102.17
3142.51
2141.23
1098.29
14.311
-1109.47
-2271.24
-3468.66
-4698.93
-5958.92
-7245.22
-8554.33
-9882.8
-11227.5
-12585.7
-13955.9
-15337.7
-16732.6
-18145.3
-19584.5
-21064.6
-22609.1
-24253.5
-26049.1
-28058.1
-30299.3
-32454.8
27690.1
25616.2
23537.2
21768.2
20286.7
19025.4
17926.9
16948.7
16059.4
15235.5
14459
13715.4
12992.6
12280.6
11570.6
10854.7
10126.2
9378.93
8607.52
7807.22
6973.99
6104.41
5195.76
4246
3253.76
2218.39
1139.91
18.998
-1142.99
-2344.13
-3581.92
-4853.39
-6155.19
-7483.69
-8835.14
-10205.8
-11592.3
-12991.6
-14401.7
-15821.9
-17253.5
-18700.7
-20171.7
-21680.9
-23251
-24917.4
-26731.1
-28753.8
-31004.3
-33164.5
28144.5
26069.2
23987.3
22214.2
20727.1
19459.1
18352.8
17365.6
16466.2
15631.3
14842.7
14086
13349.3
12622.3
11896.1
11163.2
10416.4
9649.73
8857.67
8035.46
7178.98
6284.82
5350.21
4373.1
3352.16
2286.74
1176.92
23.4586
-1172.22
-2408.04
-3681.4
-4989.15
-6327.76
-7693.39
-9082.06
-10489.8
-11912.9
-13348.2
-14793.2
-16247.1
-17710.7
-19188
-20686.8
-22221.1
-23813.5
-25499
-27328.2
-29362.9
-31621.4
-33785.7
28532.8
26456.3
24372.2
22595.6
21104.1
19830.5
18717.7
17723
16815.2
15971
15172.4
14404.7
13656.1
12916.3
12176.6
11429
10666.6
9883.29
9073.51
8232.45
7355.99
6440.64
5483.67
4482.99
3437.29
2345.96
1209.11
27.5589
-1197.17
-2462.92
-3766.94
-5105.96
-6476.28
-7873.89
-9294.6
-10734.2
-12188.8
-13655
-15130
-16612.7
-18103.7
-19606.7
-21129.2
-22685
-24296.4
-25998.1
-27840.5
-29885.3
-32150.6
-34318.4
28855.7
26778.3
24692.3
22913
21417.8
20139.8
19021.7
18020.9
17106.4
16254.6
15447.6
14671