/*--------------------------------*- C++ -*----------------------------------*\
| =========                 |                                                 |
| \\      /  F ield         | OpenFOAM: The Open Source CFD Toolbox           |
|  \\    /   O peration     | Version:  5.x                                   |
|   \\  /    A nd           | Web:      www.OpenFOAM.org                      |
|    \\/     M anipulation  |                                                 |
\*---------------------------------------------------------------------------*/
FoamFile
{
    version     2.0;
    format      ascii;
    class       volScalarField;
    location    "1.4";
    object      gradTy;
}
// * * * * * * * * * * * * * * * * * * * * * * * * * * * * * * * * * * * * * //

dimensions      [0 -1 0 1 0 0 0];

internalField   nonuniform List<scalar> 
25000
(
5297.39
10863.3
14475.6
17164
19338.3
21189.5
22818.1
24282.4
25618.9
26851.3
27995.8
29063.3
30061.8
30996.5
31870.9
32687.1
33446.4
34148.9
34794
35380.8
35907.6
36372.4
36773
37106.7
37370.8
37562.4
37678.4
37715.8
37671.5
37542.5
37325.7
37018.3
36617.5
36120.4
35524.4
34826.6
34024.1
33113.5
32091.1
30951.8
29689
28293.5
26751.7
25043.1
23135.1
20973.9
18463.6
15418.9
11435.2
5489.06
2573.15
6601.07
9696.07
12175.9
14251.2
16048.1
17643.4
19085.6
20406.2
21626.5
22761.5
23821.2
24813.2
25742.2
26611.7
27423.7
28179.2
28878.2
29520.4
30104.5
30628.9
31091.8
31490.7
31823
32086.1
32277
32392.6
32430
32386.1
32257.8
32042.2
31736.4
31337.6
30843.2
30250.3
29556.4
28758.5
27853.5
26837.7
25706.4
24453.6
23070.7
21545.6
19860.1
17986.4
15880.6
13470.8
10635.8
7170.92
2764.1
1647.79
4641.01
7214.75
9423.93
11348.4
13054.6
14591.1
15992.4
17283
18480.4
19596.9
20641.5
21620.6
22538.6
23398.5
24201.9
24949.8
25642.2
26278.4
26857.2
27377
27835.9
28231.4
28561
28822
29011.5
29126.4
29163.7
29120.4
28993.6
28780.3
28477.8
28083.2
27593.9
27007.4
26321.1
25532.3
24638.2
23635.4
22519.8
21286.3
19927.7
18434
16791.1
14978.4
12965.7
10709.1
8147.46
5206.59
1837.31
1235.67
3603.45
5771.14
7725.43
9487.3
11085.7
12547.5
13894.7
15144.2
16309.3
17399.6
18422.3
19382.8
20284.6
21130.3
21921.2
22657.9
23340.3
23967.6
24538.6
25051.5
25504.4
25895
26220.5
26478.4
26665.7
26779.5
26816.7
26774.5
26649.9
26440
26142.2
25753.7
25272.1
24695
24019.9
23244.5
22366.2
21382.4
20289.5
19083.5
17759
16308.7
14722.7
12987.8
11086.3
8996.03
6693.31
4162.64
1423.06
1007.84
2978.82
4845.04
6582.47
8190.03
9677.25
11056.9
12341.5
13542.1
14667.6
15725.1
16720.2
17656.8
18537.8
19365.1
20139.6
20861.7
21531
22146.7
22707.3
23211.2
23656.2
24040.2
24360.3
24614.1
24798.5
24910.8
24947.9
24907
24785.3
24579.9
24288.2
23907.8
23436.2
22871.2
22210.8
21452.7
20594.9
19635.3
18571.1
17399.7
16117.1
14718.9
13199.1
11550.4
9764.69
7833.75
5753.19
3529.5
1192.37
861.361
2560.87
4200.11
5757.89
7226.4
8606.12
9901.78
11119.6
12266
13346.6
14366.2
15328.6
16236.8
17092.8
17897.8
18652.5
19356.7
20010
20611.3
21159.2
21651.9
22087.3
22463
22776.5
23025.1
23206.1
23316.4
23353.3
23314
23195.7
22995.8
22711.7
22341
21881.7
21331.5
20688.8
19951.6
19118.5
18187.6
17157.5
16026.1
14791.5
13451.2
12002.7
10443.3
8770.76
6985.1
5090.78
3100.96
1042.34
756.894
2256.93
3719.3
5127.53
6472.67
7751.53
8964.52
10114
11203
12235
13212.6
14138.5
15014.4
15841.6
16620.9
17352.4
18035.8
18670.4
19254.9
19787.8
20267.2
20691.2
21057.2
21362.8
21605.3
21781.9
21890
21926.6
21889.1
21774.9
21581.3
21306
20946.8
20501.6
19968.7
19346.5
18633.5
17828.5
16930.5
15938.5
14851.6
13669.3
12390.9
11016.2
9545.61
7980.83
6325.96
4589.1
2784.36
933.633
676.619
2020.93
3340.04
4621.45
5856.95
7042.08
8175.16
9256.27
10286.4
11267.1
12199.8
13085.9
13926.2
14721.6
15472
16177.5
16837.3
17450.5
18015.8
18531.6
18995.9
19406.6
19761.5
20057.9
20293.4
20465.1
20570.5
20606.7
20571.2
20461.5
20275.1
20009.8
19663.5
19234.4
18720.9
18121.7
17435.6
16661.9
15800.1
14849.7
13810.9
12684
11469.8
10169.7
8786.16
7323.07
5786.48
4185.59
2533.65
848.432
611.356
1827.87
3026.6
4197.97
5334.95
6432.94
7489.33
8502.95
9473.54
10401.4
11286.9
12130.5
12932.6
13693.3
14412.2
15089
15722.7
16312.2
16856.1
17352.7
17800.1
18196
18538.3
18824.5
19051.9
19218.1
19320.3
19356
19322.7
19217.9
19039.4
18785.1
18453.1
18041.7
17549.5
16975.5
16318.9
15579.2
14756.3
13850.4
12862.3
11793
10644.3
9418.87
8120.2
6753.31
5325.04
3844.6
2323.89
777.571
555.909
1663.21
2757.41
3831.05
4878.26
5894.71
6877.51
7824.86
8735.75
9609.64
10446.3
11245.5
12007.1
12730.7
13415.7
14061.4
14666.7
15230.4
15750.8
16226.4
16655.1
17034.8
17363.2
17637.9
17856.5
18016.4
18115.1
18150.1
18119.1
18019.6
17849.7
17607.3
17290.7
16898.4
16429.4
15882.6
15257.5
14554.1
13772.5
12913.4
11977.9
10967.9
9885.66
8734.44
7518.48
6243.24
4915.71
3544.62
2140.57
715.869
507.127
1517.96
2518.81
3503.78
4467.95
5407.46
6319.43
7201.79
8053.12
8872.42
9658.95
10412.1
11131.3
11815.8
12464.8
13077.3
13652.1
14188
14683.1
15135.9
15544.3
15906.3
16219.6
16481.8
16690.6
16843.6
16938.4
16972.6
16943.8
16850
16689.2
16459.6
16159.5
15787.7
15343.2
14825.3
14233.7
13568.5
12830.2
12019.7
11138.6
10189.1
9173.76
8096.31
6961.23
5774.09
4541.68
3272.09
1974.74
660.192
462.998
1386.33
2301.85
3204.8
4091.1
4957.33
5800.77
6619.32
7411.36
8175.63
8911.08
9616.83
10292
10935.6
11546.8
12124.2
12666.8
13173
13641.1
14069.5
14456.2
14799
15096
15344.8
15543
15688.5
15778.9
15812
15785.6
15697.8
15546.5
15330.3
15047.7
14697.5
14278.9
13791.4
13234.8
12609.5
11916.2
11155.9
10330.6
9442.44
8494.48
7490.42
6434.81
5333.11
4191.75
3018.15
1820.68
608.547
422.185
1264.44
2100.44
2926.33
3738.66
4534.47
5311.28
6067.04
6800.07
7508.98
8192.59
8849.8
9479.58
10080.9
10652.5
11193.3
11701.9
12176.8
12616.3
13018.8
13382.3
13704.9
13984.4
14218.7
14405.7
14543.1
14628.7
14660.5
14636.5
14554.7
14413.5
14211.4
13947
13619.4
13227.9
12772
12251.9
11668
11021
10312.3
9543.83
8717.93
7837.67
6906.75
5929.61
4911.45
3858.26
2776.81
1674.58
559.621
383.769
1149.59
1910.34
2662.84
3404.18
4131.8
4843.45
5537.23
6211.49
6864.82
7495.94
8103.69
8686.92
9244.5
9775.23
10277.8
10750.9
11193
11602.6
11977.8
12316.9
12618
12879
13098
13272.9
13401.6
13482.1
13512.5
13490.7
13415.2
13284.4
13096.9
12851.4
12547.3
12183.8
11760.8
11278.4
10737
10137.7
9481.73
8771.09
8008.17
7195.98
6338.11
5438.78
4502.86
3535.88
2543.98
1533.82
512.52
347.104
1039.91
1728.55
2410.39
3082.98
3744.1
4391.75
5024.19
5639.86
6237.37
6815.46
7372.93
7908.61
8421.33
8909.88
9372.97
9809.24
10217.3
10595.4
10942.2
11255.7
11534.2
11775.9
11978.7
12140.8
12260.3
12335.3
12363.9
12344.4
12275.3
12155.1
11982.6
11756.8
11476.9
11142.4
10753.2
10309.5
9811.81
9261.16
8658.95
8007.04
7307.79
6564.07
5779.3
4957.41
4102.93
3220.87
2316.78
1396.6
466.629
311.727
934.025
1552.88
2166.11
2771.62
3367.51
3952.03
4523.6
5080.79
5622.29
6146.86
6653.34
7140.58
7607.41
8052.65
8475.06
8873.31
9246
9591.68
9908.78
10195.7
10450.6
10672
10857.9
11006.6
11116.4
11185.4
11212.1
11194.9
11132.2
11022.9
10865.9
10660.2
10405.1
10100.4
9745.83
9341.76
8888.75
8387.77
7840.19
7247.81
6612.86
5938.06
5226.55
4481.99
3708.48
2910.57
2093.19
1261.66
421.516
277.3
830.943
1381.74
1927.85
2467.54
2999.15
3521.19
4032.23
4530.99
5016.26
5486.88
5941.74
6379.75
6799.8
7200.75
7581.42
7940.56
8276.87
8588.98
8875.42
9134.7
9365.26
9565.5
9733.79
9868.51
9968.05
10030.9
10055.4
10040.3
9984.19
9885.99
9744.69
9559.52
9329.92
9055.58
8736.47
8372.87
7965.35
7514.88
7022.74
6490.61
5920.59
5315.15
4677.19
4010
3317.28
2603.08
1871.8
1128.11
376.879
243.572
729.927
1213.93
1694.05
2168.83
2636.88
3096.88
3547.63
3987.95
4416.77
4833.03
5235.72
5623.81
5996.28
6352.07
6690.09
7009.19
7308.16
7585.74
7840.63
8071.44
8276.78
8455.19
8605.21
8725.4
8814.31
8870.53
8892.72
8879.64
8830.13
8743.18
8617.93
8453.71
8250.05
8006.69
7723.65
7401.22
7039.94
6640.71
6204.73
5733.54
5229.02
4693.41
4129.32
3539.67
2927.74
2297.1
1651.61
995.327
332.507
210.358
630.428
1048.57
1463.52
1874.06
2279.04
2677.34
3067.92
3449.77
3821.93
4183.48
4533.5
4871.07
5195.27
5505.14
5799.7
6077.92
6338.71
6580.95
6803.48
7005.06
7184.46
7340.41
7471.6
7576.77
7654.64
7703.99
7723.65
7712.52
7669.61
7594.04
7485.07
7342.12
7164.81
6952.94
6706.54
6425.88
6111.49
5764.16
5384.98
4975.31
4536.84
4071.53
3581.67
3069.81
2538.8
1991.74
1431.94
862.895
288.257
177.52
532.036
884.99
1235.36
1582.16
1924.42
2261.24
2591.72
2915.03
3230.34
3536.84
3833.76
4120.29
4395.62
4658.92
4909.33
5145.95
5367.84
5574.03
5763.49
5935.19
6088.05
6220.96
6332.83
6422.55
6489.04
6531.26
6548.21
6538.96
6502.65
6438.56
6346.05
6224.65
6074.04
5894.08
5684.79
5446.43
5179.47
4884.61
4562.79
4215.2
3843.27
3448.7
3033.43
2599.65
2149.77
1686.4
1212.34
730.536
244.036
144.951
434.441
722.699
1008.92
1292.31
1572.1
1847.57
2117.99
2382.67
2640.93
2892.12
3135.57
3370.61
3596.57
3812.75
4018.42
4212.84
4395.22
4564.74
4720.57
4861.82
4987.6
5097
5189.12
5263.03
5317.85
5352.71
5366.8
5359.34
5329.64
5277.1
5201.21
5101.59
4977.98
4830.26
4658.49
4462.87
4243.81
4001.9
3737.92
3452.86
3147.91
2824.48
2484.17
2128.77
1760.25
1380.76
992.569
598.084
199.787
112.574
337.41
561.315
783.677
1003.9
1221.39
1435.59
1645.94
1851.91
2052.97
2248.59
2438.27
2621.46
2797.64
2966.25
3126.71
3278.44
3420.8
3553.17
3674.87
3785.21
3883.48
3968.99
4041
4098.8
4141.7
4169.01
4180.1
4174.37
4151.28
4110.36
4051.22
3973.55
3877.16
3761.98
3628.04
3475.53
3304.75
3116.18
2910.44
2688.3
2450.72
2198.77
1933.73
1656.97
1370.06
1074.64
772.486
465.459
155.482
80.3281
240.766
400.554
559.261
716.467
871.76
1024.74
1175.01
1322.2
1465.91
1605.79
1741.44
1872.5
1998.58
2119.26
2234.15
2342.8
2444.77
2539.59
2626.79
2705.86
2776.3
2837.59
2889.22
2930.68
2961.46
2981.08
2989.07
2985.02
2968.53
2939.26
2896.95
2841.38
2772.4
2689.97
2594.12
2484.98
2362.78
2227.86
2080.67
1921.77
1751.85
1571.67
1382.15
1184.29
979.186
768.023
552.067
332.64
111.114
48.1672
144.373
240.193
335.374
429.665
522.822
614.606
704.782
793.121
879.395
963.38
1044.85
1123.57
1199.31
1271.82
1340.86
1406.16
1467.45
1524.46
1576.89
1624.43
1666.79
1703.66
1734.71
1759.66
1778.18
1789.99
1794.82
1792.4
1782.5
1764.93
1739.51
1706.12
1664.68
1615.16
1557.57
1492
1418.59
1337.55
1249.14
1153.7
1051.66
943.464
829.67
710.877
587.745
460.986
331.358
199.653
66.6911
16.0537
48.1185
80.0557
111.781
143.212
174.266
204.865
234.931
264.387
293.157
321.166
348.338
374.597
399.863
424.055
447.089
468.878
489.331
508.353
525.848
541.715
555.852
568.154
578.519
586.842
593.023
596.964
598.573
597.764
594.46
588.594
580.11
568.966
555.136
538.609
519.393
497.515
473.023
445.986
416.494
384.662
350.626
314.544
276.597
236.986
195.931
153.671
110.456
66.5521
22.2306
-16.0446
-48.091
-80.01
-111.717
-143.131
-174.168
-204.751
-234.801
-264.241
-292.996
-320.991
-348.149
-374.393
-399.646
-423.826
-446.849
-468.628
-489.072
-508.087
-525.577
-541.441
-555.576
-567.88
-578.248
-586.577
-592.767
-596.719
-598.341
-597.548
-594.261
-588.415
-579.953
-568.832
-555.026
-538.524
-519.334
-497.481
-473.013
-445.998
-416.527
-384.713
-350.692
-314.621
-276.68
-237.071
-196.012
-153.742
-110.512
-66.5879
-22.2429
-48.1582
-144.346
-240.148
-335.311
-429.585
-522.726
-614.493
-704.654
-792.977
-879.236
-963.206
-1044.66
-1123.37
-1199.09
-1271.59
-1340.62
-1405.91
-1467.2
-1524.2
-1576.62
-1624.16
-1666.52
-1703.39
-1734.45
-1759.39
-1777.92
-1789.75
-1794.59
-1792.18
-1782.3
-1764.75
-1739.35
-1705.99
-1664.57
-1615.07
-1557.51
-1491.97
-1418.58
-1337.56
-1249.17
-1153.76
-1051.72
-943.54
-829.753
-710.962
-587.826
-461.057
-331.413
-199.688
-66.7033
-80.3193
-240.74
-400.509
-559.199
-716.388
-871.665
-1024.63
-1174.89
-1322.05
-1465.76
-1605.62
-1741.26
-1872.31
-1998.37
-2119.04
-2233.91
-2342.55
-2444.51
-2539.33
-2626.52
-2705.59
-2776.03
-2837.32
-2888.96
-2930.42
-2961.21
-2980.84
-2988.85
-2984.81
-2968.33
-2939.09
-2896.8
-2841.24
-2772.29
-2689.88
-2594.06
-2484.94
-2362.76
-2227.87
-2080.7
-1921.82
-1751.91
-1571.75
-1382.24
-1184.37
-979.265
-768.092
-552.121
-332.675
-111.126
-112.565
-337.384
-561.272
-783.618
-1003.82
-1221.3
-1435.48
-1645.82
-1851.77
-2052.82
-2248.43
-2438.09
-2621.27
-2797.43
-2966.03
-3126.48
-3278.2
-3420.56
-3552.92
-3674.61
-3784.95
-3883.22
-3968.73
-4040.74
-4098.55
-4141.45
-4168.78
-4179.88
-4174.17
-4151.09
-4110.19
-4051.06
-3973.42
-3877.06
-3761.9
-3627.98
-3475.49
-3304.74
-3116.19
-2910.47
-2688.35
-2450.78
-2198.85
-1933.8
-1657.06
-1370.13
-1074.71
-772.539
-465.493
-155.494
-144.943
-434.416
-722.658
-1008.86
-1292.23
-1572.02
-1847.47
-2117.87
-2382.53
-2640.79
-2891.96
-3135.4
-3370.43
-3596.37
-3812.54
-4018.21
-4212.61
-4394.99
-4564.5
-4720.32
-4861.57
-4987.35
-5096.75
-5188.87
-5262.79
-5317.61
-5352.49
-5366.58
-5359.14
-5329.46
-5276.93
-5201.07
-5101.47
-4977.88
-4830.18
-4658.43
-4462.84
-4243.8
-4001.91
-3737.95
-3452.9
-3147.97
-2824.55
-2484.25
-2128.84
-1760.32
-1380.82
-992.62
-598.117
-199.798
-177.512
-532.012
-884.951
-1235.31
-1582.09
-1924.34
-2261.14
-2591.61
-2914.9
-3230.2
-3536.69
-3833.6
-4120.12
-4395.44
-4658.73
-4909.13
-5145.73
-5367.62
-5573.8
-5763.26
-5934.95
-6087.8
-6220.72
-6332.59
-6422.31
-6488.82
-6531.05
-6548.01
-6538.76
-6502.47
-6438.39
-6345.91
-6224.53
-6073.94
-5894
-5684.73
-5446.4
-5179.46
-4884.62
-4562.82
-4215.24
-3843.32
-3448.76
-3033.5
-2599.73
-2149.84
-1686.46
-1212.39
-730.567
-244.047
-210.351
-630.406
-1048.53
-1463.47
-1874
-2278.96
-2677.25
-3067.82
-3449.65
-3821.81
-4183.34
-4533.35
-4870.91
-5195.1
-5504.96
-5799.51
-6077.71
-6338.5
-6580.74
-6803.25
-7004.84
-7184.24
-7340.18
-7471.38
-7576.55
-7654.43
-7703.79
-7723.46
-7712.34
-7669.44
-7593.89
-7484.93
-7342.01
-7164.71
-6952.86
-6706.48
-6425.84
-6111.47
-5764.16
-5385
-4975.35
-4536.89
-4071.59
-3581.73
-3069.88
-2538.87
-1991.8
-1431.98
-862.924
-288.267
-243.566
-729.907
-1213.9
-1694
-2168.77
-2636.8
-3096.8
-3547.53
-3987.85
-4416.65
-4832.91
-5235.58
-5623.66
-5996.12
-6351.9
-6689.91
-7009
-7307.96
-7585.54
-7840.42
-8071.23
-8276.56
-8454.98
-8605.01
-8725.2
-8814.11
-8870.33
-8892.54
-8879.47
-8829.97
-8743.04
-8617.8
-8453.6
-8249.95
-8006.62
-7723.6
-7401.18
-7039.93
-6640.71
-6204.75
-5733.57
-5229.06
-4693.47
-4129.38
-3539.73
-2927.8
-2297.16
-1651.65
-995.354
-332.516
-277.294
-830.926
-1381.71
-1927.81
-2467.48
-2999.09
-3521.11
-4032.15
-4530.9
-5016.15
-5486.76
-5941.61
-6379.61
-6799.65
-7200.59
-7581.25
-7940.39
-8276.7
-8588.79
-8875.23
-9134.51
-9365.07
-9565.3
-9733.6
-9868.32
-9967.87
-10030.7
-10055.2
-10040.1
-9984.04
-9885.85
-9744.57
-9559.42
-9329.83
-9055.51
-8736.42
-8372.83
-7965.34
-7514.87
-7022.75
-6490.64
-5920.63
-5315.2
-4677.24
-4010.05
-3317.33
-2603.13
-1871.84
-1128.13
-376.887
-311.722
-934.01
-1552.86
-2166.07
-2771.57
-3367.45
-3951.97
-4523.53
-5080.71
-5622.2
-6146.76
-6653.23
-7140.46
-7607.28
-8052.52
-8474.91
-8873.15
-9245.85
-9591.52
-9908.61
-10195.5
-10450.5
-10671.8
-10857.7
-11006.5
-11116.2
-11185.3
-11212
-11194.7
-11132.1
-11022.8
-10865.8
-10660.1
-10405
-10100.3
-9745.78
-9341.72
-8888.73
-8387.76
-7840.19
-7247.83
-6612.89
-5938.09
-5226.6
-4482.04
-3708.53
-2910.61
-2093.23
-1261.68
-421.523
-347.1
-1039.9
-1728.53
-2410.36
-3082.94
-3744.05
-4391.7
-5024.13
-5639.79
-6237.3
-6815.38
-7372.84
-7908.51
-8421.22
-8909.76
-9372.84
-9809.11
-10217.1
-10595.3
-10942
-11255.6
-11534.1
-11775.7
-11978.6
-12140.7
-12260.2
-12335.1
-12363.7
-12344.3
-12275.2
-12155
-11982.5
-11756.7
-11476.8
-11142.3
-10753.1
-10309.4
-9811.78
-9261.15
-8658.95
-8007.05
-7307.81
-6564.1
-5779.33
-4957.45
-4102.97
-3220.91
-2316.81
-1396.62
-466.636
-383.765
-1149.58
-1910.32
-2662.82
-3404.15
-4131.76
-4843.41
-5537.18
-6211.44
-6864.76
-7495.87
-8103.61
-8686.84
-9244.42
-9775.14
-10277.7
-10750.8
-11192.9
-11602.5
-11977.7
-12316.8
-12617.9
-12878.9
-13097.9
-13272.8
-13401.5
-13482
-13512.3
-13490.6
-13415.1
-13284.3
-13096.8
-12851.4
-12547.2
-12183.8
-11760.8
-11278.4
-10737
-10137.7
-9481.72
-8771.09
-8008.19
-7196
-6338.14
-5438.81
-4502.89
-3535.91
-2544
-1533.83
-512.526
-422.182
-1264.43
-2100.42
-2926.31
-3738.64
-4534.45
-5311.25
-6067
-6800.03
-7508.94
-8192.54
-8849.75
-9479.52
-10080.8
-10652.4
-11193.2
-11701.8
-12176.7
-12616.2
-13018.7
-13382.2
-13704.8
-13984.3
-14218.6
-14405.6
-14543
-14628.6
-14660.4
-14636.4
-14554.6
-14413.4
-14211.3
-13946.9
-13619.3
-13227.8
-12772
-12251.9
-11667.9
-11021
-10312.3
-9543.82
-8717.94
-7837.68
-6906.76
-5929.63
-4911.47
-3858.28
-2776.82
-1674.59
-559.625
-462.997
-1386.33
-2301.84
-3204.79
-4091.09
-4957.31
-5800.75
-6619.3
-7411.34
-8175.6
-8911.06
-9616.79
-10291.9
-10935.6
-11546.7
-12124.2
-12666.7
-13172.9
-13641.1
-14069.4
-14456.1
-14799
-15095.9
-15344.7
-15543
-15688.5
-15778.9
-15812
-15785.6
-15697.7
-15546.5
-15330.3
-15047.6
-14697.4
-14278.8
-13791.3
-13234.8
-12609.5
-11916.1
-11155.9
-10330.6
-9442.43
-8494.47
-7490.42
-6434.82
-5333.12
-4191.76
-3018.15
-1820.69
-608.55
-507.127
-1517.96
-2518.81
-3503.77
-4467.95
-5407.46
-6319.42
-7201.78
-8053.11
-8872.41
-9658.95
-10412.1
-11131.3
-11815.8
-12464.8
-13077.3
-13652.1
-14187.9
-14683.1
-15135.9
-15544.3
-15906.3
-16219.5
-16481.8
-16690.6
-16843.6
-16938.4
-16972.5
-16943.8
-16850
-16689.2
-16459.5
-16159.4
-15787.6
-15343.1
-14825.3
-14233.7
-13568.4
-12830.1
-12019.7
-11138.6
-10189
-9173.74
-8096.31
-6961.23
-5774.09
-4541.68
-3272.1
-1974.74
-660.192
-555.91
-1663.21
-2757.41
-3831.06
-4878.27
-5894.72
-6877.53
-7824.88
-8735.76
-9609.66
-10446.3
-11245.5
-12007.1
-12730.7
-13415.7
-14061.4
-14666.7
-15230.4
-15750.9
-16226.4
-16655.1
-17034.8
-17363.2
-17637.9
-17856.5
-18016.4
-18115.1
-18150.1
-18119
-18019.6
-17849.7
-17607.2
-17290.7
-16898.4
-16429.3
-15882.5
-15257.5
-14554.1
-13772.5
-12913.3
-11977.9
-10967.9
-9885.63
-8734.42
-7518.46
-6243.22
-4915.7
-3544.62
-2140.56
-715.867
-611.359
-1827.88
-3026.62
-4197.99
-5334.98
-6432.97
-7489.36
-8502.98
-9473.58
-10401.4
-11286.9
-12130.6
-12932.7
-13693.3
-14412.3
-15089
-15722.7
-16312.2
-16856.1
-17352.7
-17800.1
-18196.1
-18538.4
-18824.5
-19052
-19218.1
-19320.3
-19356
-19322.7
-19217.9
-19039.4
-18785.1
-18453.1
-18041.6
-17549.5
-16975.5
-16318.9
-15579.2
-14756.3
-13850.4
-12862.2
-11792.9
-10644.3
-9418.83
-8120.17
-6753.28
-5325.02
-3844.59
-2323.88
-777.567
-676.623
-2020.94
-3340.06
-4621.48
-5856.98
-7042.12
-8175.21
-9256.32
-10286.5
-11267.2
-12199.9
-13086
-13926.3
-14721.7
-15472.1
-16177.6
-16837.4
-17450.6
-18015.9
-18531.7
-18996
-19406.8
-19761.6
-20058
-20293.5
-20465.2
-20570.5
-20606.8
-20571.3
-20461.6
-20275.1
-20009.8
-19663.5
-19234.4
-18720.9
-18121.6
-17435.6
-16661.9
-15800
-14849.7
-13810.8
-12683.9
-11469.7
-10169.6
-8786.11
-7323.02
-5786.44
-4185.57
-2533.64
-848.426
-756.899
-2256.95
-3719.33
-5127.56
-6472.72
-7751.59
-8964.59
-10114.1
-11203.1
-12235.1
-13212.7
-14138.6
-15014.5
-15841.8
-16621.1
-17352.6
-18036
-18670.5
-19255
-19787.9
-20267.4
-20691.3
-21057.3
-21362.9
-21605.4
-21782.1
-21890.1
-21926.7
-21889.3
-21775
-21581.4
-21306.1
-20946.8
-20501.7
-19968.8
-19346.5
-18633.5
-17828.5
-16930.4
-15938.4
-14851.6
-13669.3
-12390.9
-11016.1
-9545.55
-7980.77
-6325.91
-4589.06
-2784.34
-933.624
-861.369
-2560.9
-4200.14
-5757.95
-7226.46
-8606.2
-9901.88
-11119.7
-12266.1
-13346.7
-14366.3
-15328.8
-16237
-17093
-17898
-18652.7
-19356.9
-20010.2
-20611.6
-21159.5
-21652.2
-22087.5
-22463.3
-22776.8
-23025.4
-23206.3
-23316.6
-23353.5
-23314.2
-23195.9
-22995.9
-22711.8
-22341.1
-21881.8
-21331.6
-20688.8
-19951.7
-19118.5
-18187.6
-17157.4
-16026
-14791.4
-13451.2
-12002.7
-10443.2
-8770.68
-6985.03
-5090.73
-3100.93
-1042.33
-1007.85
-2978.85
-4845.08
-6582.54
-8190.12
-9677.35
-11057
-12341.7
-13542.3
-14667.8
-15725.3
-16720.4
-17657
-18538
-19365.3
-20139.9
-20862
-21531.3
-22147
-22707.6
-23211.5
-23656.6
-24040.5
-24360.7
-24614.4
-24798.8
-24911.1
-24948.2
-24907.3
-24785.5
-24580.1
-24288.4
-23907.9
-23436.3
-22871.3
-22210.8
-21452.7
-20595
-19635.2
-18571.1
-17399.6
-16117
-14718.8
-13199
-11550.3
-9764.6
-7833.67
-5753.12
-3529.46
-1192.36
-1235.69
-3603.49
-5771.2
-7725.51
-9487.41
-11085.9
-12547.7
-13894.8
-15144.4
-16309.5
-17399.8
-18422.6
-19383
-20284.9
-21130.6
-21921.5
-22658.3
-23340.7
-23968
-24539
-25051.9
-25504.8
-25895.4
-26220.9
-26478.8
-26666.1
-26779.9
-26817.1
-26774.9
-26650.2
-26440.3
-26142.4
-25753.9
-25272.3
-24695.1
-24020
-23244.6
-22366.3
-21382.4
-20289.5
-19083.5
-17758.9
-16308.6
-14722.6
-12987.7
-11086.2
-8995.93
-6693.23
-4162.59
-1423.04
-1647.8
-4641.05
-7214.82
-9424.03
-11348.6
-13054.7
-14591.2
-15992.6
-17283.3
-18480.6
-19597.2
-20641.8
-21620.9
-22539
-23398.8
-24202.3
-24950.3
-25642.6
-26278.8
-26857.6
-27377.5
-27836.3
-28231.9
-28561.5
-28822.5
-29011.9
-29126.8
-29164.1
-29120.9
-28994
-28780.7
-28478.1
-28083.5
-27594.2
-27007.6
-26321.3
-25532.5
-24638.3
-23635.4
-22519.9
-21286.3
-19927.6
-18433.9
-16791
-14978.3
-12965.6
-10709
-8147.38
-5206.53
-1837.29
-2573.16
-6601.12
-9696.15
-12176.1
-14251.3
-16048.2
-17643.6
-19085.8
-20406.4
-21626.8
-22761.8
-23821.6
-24813.5
-25742.6
-26612.1
-27424.2
-28179.6
-28878.7
-29520.9
-30105
-30629.5
-31092.3
-31491.2
-31823.6
-32086.6
-32277.5
-32393.1
-32430.5
-32386.5
-32258.2
-32042.6
-31736.8
-31338
-30843.5
-30250.6
-29556.6
-28758.7
-27853.6
-26837.8
-25706.5
-24453.6
-23070.7
-21545.5
-19860
-17986.3
-15880.5
-13470.7
-10635.7
-7170.86
-2764.08
-5297.41
-10863.3
-14475.7
-17164.1
-19338.5
-21189.7
-22818.3
-24282.7
-25619.2
-26851.6
-27996.1
-29063.7
-30062.2
-30996.9
-31871.3
-32687.6
-33446.9
-34149.4
-34794.5
-35381.3
-35908.1
-36372.9
-36773.5
-37107.2
-37371.4
-37562.9
-37678.9
-37716.3
-37672
-37542.9
-37326.1
-37018.7
-36617.8
-36120.7
-35524.6
-34826.8
-34024.2
-33113.6
-32091.1
-30951.8
-29689
-28293.4
-26751.6
-25042.9
-23135
-20973.8
-18463.5
-15418.8
-11435.2
-5489.04
2581.32
6624.71
9733.97
12227
14314.4
16122.7
17728.7
19180.9
20510.9
21740.1
22883.2
23950.7
24949.9
25885.7
26761.5
27579.3
28340.1
29044.2
29690.8
30279
30807.1
31273.1
31674.7
32009.3
32274.1
32466.2
32582.6
32620.1
32575.7
32446.4
32229.2
31921.1
31519.4
31021.3
30424.2
29725.2
28921.5
28009.9
26986.7
25847.2
24585.4
23192.6
21656.8
19959.7
18073.6
15954.4
13530.2
10679.8
7198.23
2773.5
1899.52
5249.13
8037.77
10375
12379.7
14139.6
15714.9
17145.9
18460.6
19678
20811.8
21871.6
22864.3
23794.5
24665.4
25478.9
26236
26936.6
27580.2
28165.7
28691.5
29155.5
29555.4
29888.7
30152.4
30343.8
30459.8
30497.3
30453.3
30324.7
30108.6
29802.2
29402.6
28907.1
28313.2
27618
26818.9
25912.8
24896.2
23764.7
22512.7
21132.3
19612.6
17937.5
16083.2
14013.5
11673.4
8980.06
5820.51
2090.99
1440.99
4149.36
6558.97
8677.29
10551.2
12228.7
13748.8
15140.9
16426.5
17621.4
18737.1
19781.9
20761.8
21681
22542.3
23347.3
24096.8
24790.7
25428.4
26008.6
26529.7
26989.7
27386.3
27716.8
27978.5
28168.4
28283.6
28321.1
28277.8
28150.7
27937
27633.7
27238.3
26748
26160.4
25472.8
24682.8
23787.5
22783.9
21667.9
20434.9
19078.3
17589.1
15954.9
14157.8
12172.8
9965.88
7494.21
4716.47
1631.02
1157.84
3398.93
5480.08
7379.41
9107.39
10685.2
12134.6
13474.6
14720.3
15883.5
16973.3
17996.4
18957.8
19860.9
20708.1
21500.5
22238.8
22922.7
23551.5
24123.9
24638.1
25092.2
25483.7
25810.1
26068.7
26256.5
26370.6
26408
26365.7
26240.8
26030.5
25732
25342.7
24860.1
24281.8
23605.5
22828.8
21949.4
20964.5
19871
18665.2
17342.1
15895.1
14315.7
12592.4
10710.7
8653.44
6404.75
3959.63
1345.72
973.38
2883.32
4702.95
6407.68
7993.39
9466.51
10837.4
12116.9
13314.7
14439
15496.5
16492.1
17429.7
18312.1
19140.8
19916.9
20640.6
21311.5
21928.6
22490.6
22995.7
23441.9
23826.8
24147.8
24402.3
24587.2
24699.8
24737
24696.1
24574.1
24368.2
24075.9
23694.6
23222
22655.9
21994.2
21234.9
20375.8
19415
18350.1
17178.4
15896.6
14500.6
12985.3
11344.7
9572.3
7662.34
5613.56
3435.49
1158.41
844.317
2512.35
4125.84
5664.27
7119.07
8489.59
9779.39
10993.8
12138.4
13218.5
14238.4
15201.6
16111
16968.4
17774.9
18531.1
19236.9
19891.7
20494.5
21043.7
21537.7
21974.2
22350.9
22665.2
22914.5
23095.8
23206.5
23243.6
23204.2
23085.7
22885.3
22600.5
22229
21768.7
21217.4
20573.4
19834.9
19000.4
18068.4
17037.2
15905.2
14670.7
13331.7
11886
10331.7
8667.6
6894.78
5018.92
3053.9
1025.79
747.903
2230.99
3678.9
5075.78
6412.6
7685.74
8895.1
10042.5
11130.7
12162.6
13140.9
14067.8
14945
15773.7
16554.5
17287.5
17972.5
18608.5
19194.4
19728.7
20209.3
20634.4
21001.3
21307.7
21550.8
21728
21836.3
21873.1
21835.6
21721
21527
21251.1
20891.1
20444.9
19910.9
19287.4
18573
17766.7
16867.3
15874.1
14786.4
13603.7
12325.6
10952.3
9484.66
7924.83
6277.45
4551.04
2759.83
925.118
671.761
2006.81
3317.86
4592.79
5823.47
7005.31
8136.4
9216.55
10246.6
11227.7
12161.3
13048.5
13890.2
14687
15439
16146
16807.3
17422
17988.7
18505.8
18971.3
19383.1
19738.8
20036.1
20272.1
20444.3
20550
20586.3
20550.8
20440.8
20254
19988
19640.9
19210.9
18696.3
18095.8
17408.4
16633.3
15770
14818.3
13778.3
12650.6
11436
10136.3
8754.1
7293.54
5760.96
4165.69
2520.92
844.035
608.778
1820.36
3014.77
4182.67
5317.11
6413.47
7469.03
8482.49
9453.45
10382.1
11268.6
12113.6
12917.1
13679.3
14399.7
15078
15713.2
16304.1
16849.4
17347.2
17795.7
18192.8
18535.9
18822.8
19050.9
19217.5
19320
19355.8
19322.4
19217.4
19038.5
18783.6
18450.8
18038.4
17545.2
16970
16312
15570.8
14746.4
13839.1
12849.6
11779.1
10629.6
9403.77
8105.28
6739.29
5312.78
3834.98
2317.72
775.44
554.652
1659.56
2751.68
3823.73
4869.88
5885.82
6868.6
7816.36
8728
9602.92
10440.8
11241.4
12004.4
12729.5
13416.1
14063.2
14670
15235
15756.8
16233.6
16663.4
17044
17373.3
17648.7
17867.9
18028.2
18127.2
18162.3
18131.2
18031.6
17861.2
17618.2
17300.9
16907.7
16437.6
15889.6
15263.2
14558.3
13775.2
12914.5
11977.6
10966.2
9882.71
8730.53
7513.96
6238.54
4911.32
3541.03
2138.2
715.042
506.657
1516.62
2516.77
3501.31
4465.38
5405.1
6317.59
7200.75
8053.09
8873.59
9661.45
10416
11136.6
11822.6
12473.1
13087.1
13663.3
14200.4
14696.9
15150.8
15560.3
15923.2
16237.3
16500.2
16709.6
16863
16958
16992.3
16963.5
16869.5
16708.3
16478.1
16177.3
15804.6
15359.1
14840
14247.1
13580.4
12840.6
12028.6
11145.9
10194.8
9178.03
8099.27
6963.07
5775.04
4542.02
3272.09
1974.63
660.133
463.001
1386.38
2302.04
3205.3
4092.08
4958.99
5803.31
6622.9
7416.12
8181.68
8918.5
9625.67
10302.3
10947.3
11559.9
12138.8
12682.7
13190.1
13659.4
14088.9
14476.6
14820.4
15118.1
15367.5
15566.3
15712.2
15802.9
15836.1
15809.6
15721.5
15570
15353.2
15069.9
14718.8
14299.2
13810.6
13252.8
12626.1
11931.2
11169.4
10342.4
9452.67
8503.11
7497.51
6440.46
5337.45
4194.9
3020.27
1821.9
608.942
422.469
1265.31
2101.96
2928.59
3741.77
4538.55
5316.44
6073.37
6807.67
7517.92
8202.9
8861.51
9492.69
10095.4
10668.4
11210.5
11720.3
12196.4
12637.1
13040.6
13405.1
13728.5
14008.7
14243.7
14431.1
14568.9
14654.8
14686.7
14662.6
14580.6
14439.1
14236.4
13971.4
13643
13250.5
12793.6
12272.3
11687
11038.5
10328.3
9558.25
8730.71
7848.78
6916.21
5937.45
4917.72
3863.03
2780.16
1676.55
560.274
384.212
1150.93
1912.62
2666.1
3408.49
4137.23
4850.07
5545.09
6220.64
6875.29
7507.76
8116.86
8701.44
9260.34
9792.36
10296.2
10770.5
11213.7
11624.3
12000.5
12340.5
12642.4
12904.1
13123.7
13299.1
13428.1
13508.8
13539.2
13517.5
13441.8
13310.6
13122.6
12876.6
12571.7
12207.4
11783.3
11299.7
10757.1
10156.3
9498.9
8786.7
8022.16
7208.31
6348.75
5447.73
4510.14
3541.5
2547.96
1536.19
513.31
347.628
1041.49
1731.2
2414.15
3087.88
3750.17
4399.04
5032.72
5649.66
6248.46
6827.84
7386.6
7923.54
8437.51
8927.26
9391.51
9828.89
10238
10617.1
10964.8
11279.1
11558.4
11800.6
12004
12166.6
12286.4
12361.5
12390.2
12370.8
12301.5
12181
12008.1
11781.7
11501
11165.7
10775.5
10330.7
9831.87
9279.92
8676.3
8022.9
7322.09
6576.76
5790.32
4966.76
4110.57
3226.81
2321.02
1399.14
467.474
312.279
935.684
1555.66
2170.02
2776.68
3373.74
3959.46
4532.24
5090.64
5633.36
6159.14
6666.82
7155.24
7623.22
8069.58
8493.05
8892.32
9265.98
9612.56
9930.48
10218.1
10473.8
10695.7
10882.1
11031.2
11141.3
11210.5
11237.3
11220
11157.2
11047.7
10890.2
10683.9
10428.3
10122.7
9767.32
9362.25
8908.12
8405.92
7857.03
7263.26
6626.84
5950.5
5237.42
4491.23
3716.07
2916.48
2097.43
1264.2
422.363
277.844
832.579
1384.47
1931.69
2472.49
3005.23
3528.39
4040.57
4540.47
5026.86
5498.59
5954.56
6393.64
6814.74
7216.71
7598.35
7958.42
8295.61
8608.53
8895.72
9155.69
9386.86
9587.63
9756.37
9891.45
9991.27
10054.2
10078.8
10063.7
10007.5
9909.02
9767.36
9581.72
9351.53
9076.49
8756.57
8392.05
7983.53
7531.94
7038.59
6505.19
5933.81
5326.95
4687.51
4018.8
3324.52
2608.74
1875.86
1130.54
377.691
244.086
731.469
1216.5
1697.66
2173.47
2642.56
3103.61
3555.39
3996.75
4426.59
4843.86
5247.54
5636.6
6010.01
6366.71
6705.6
7025.52
7325.27
7603.59
7859.14
8090.57
8296.45
8475.34
8625.76
8746.27
8835.42
8891.79
8914.05
8900.94
8851.3
8764.13
8638.56
8473.92
8269.73
8025.75
7741.99
7418.73
7056.55
6656.32
6219.26
5746.91
5241.16
4704.26
4138.82
3547.79
2934.43
2302.34
1655.36
997.584
333.259
210.825
631.828
1050.9
1466.78
1878.26
2284.18
2683.41
3074.91
3457.68
3830.75
4193.19
4544.08
4882.51
5207.53
5518.2
5813.52
6092.46
6353.94
6596.82
6819.93
7022.05
7201.93
7358.29
7489.83
7595.28
7673.37
7722.85
7742.57
7731.41
7688.39
7612.62
7503.37
7360.06
7182.28
6969.86
6722.83
6441.45
6126.26
5778.06
5397.92
4987.23
4547.68
4081.23
3590.17
3077.08
2544.79
1996.43
1435.3
864.92
288.933
177.927
533.26
887.03
1238.22
1585.83
1928.9
2266.52
2597.8
2921.9
3237.99
3545.26
3842.93
4130.19
4406.23
4670.21
4921.27
5158.51
5380.98
5587.71
5777.68
5949.83
6103.09
6236.36
6348.53
6438.49
6505.17
6547.5
6564.5
6555.22
6518.82
6454.56
6361.81
6240.1
6089.1
5908.67
5698.84
5459.87
5192.23
4896.61
4573.97
4225.5
3852.64
3457.09
3040.79
2605.95
2154.97
1690.47
1215.26
732.294
244.623
145.293
435.466
724.406
1011.31
1295.37
1575.85
1851.98
2123.06
2388.4
2647.31
2899.13
3143.2
3378.85
3605.39
3822.13
4028.34
4223.27
4406.13
4576.1
4732.34
4873.96
5000.08
5109.77
5202.13
5276.25
5331.21
5366.17
5380.3
5372.82
5343.05
5290.37
5214.29
5114.4
4990.47
4842.37
4670.15
4474.03
4254.4
4011.87
3747.21
3461.43
3155.71
2831.46
2490.3
2134.01
1764.58
1384.15
995.004
599.55
200.276
112.844
338.221
562.665