/*--------------------------------*- C++ -*----------------------------------*\
| =========                 |                                                 |
| \\      /  F ield         | OpenFOAM: The Open Source CFD Toolbox           |
|  \\    /   O peration     | Version:  5.x                                   |
|   \\  /    A nd           | Web:      www.OpenFOAM.org                      |
|    \\/     M anipulation  |                                                 |
\*---------------------------------------------------------------------------*/
FoamFile
{
    version     2.0;
    format      ascii;
    class       volScalarField;
    location    "1.4";
    object      T;
}
// * * * * * * * * * * * * * * * * * * * * * * * * * * * * * * * * * * * * * //

dimensions      [0 0 0 1 0 0 0];

internalField   nonuniform List<scalar> 
25000
(
300.737
301.382
301.766
302.043
302.263
302.45
302.614
302.761
302.895
303.018
303.133
303.24
303.34
303.433
303.521
303.603
303.679
303.749
303.814
303.872
303.925
303.972
304.012
304.045
304.072
304.091
304.102
304.106
304.102
304.089
304.067
304.036
303.996
303.946
303.887
303.817
303.737
303.645
303.543
303.429
303.302
303.162
303.008
302.836
302.645
302.427
302.173
301.861
301.44
300.756
301.382
302.963
304.024
304.823
305.472
306.026
306.514
306.952
307.353
307.722
308.065
308.385
308.685
308.965
309.227
309.472
309.7
309.91
310.104
310.28
310.438
310.577
310.697
310.797
310.877
310.934
310.969
310.98
310.967
310.928
310.863
310.771
310.651
310.502
310.323
310.114
309.873
309.6
309.293
308.952
308.573
308.155
307.693
307.181
306.609
305.963
305.213
304.307
303.135
301.44
301.766
304.023
305.645
306.913
307.964
308.869
309.671
310.395
311.057
311.669
312.238
312.768
313.265
313.73
314.166
314.572
314.95
315.3
315.622
315.914
316.177
316.408
316.608
316.774
316.906
317.002
317.06
317.078
317.056
316.992
316.884
316.731
316.531
316.284
315.987
315.639
315.24
314.787
314.278
313.711
313.084
312.391
311.626
310.78
309.839
308.779
307.561
306.115
304.308
301.862
302.041
304.819
306.91
308.592
310.011
311.248
312.35
313.349
314.266
315.114
315.904
316.642
317.333
317.981
318.587
319.153
319.68
320.167
320.615
321.023
321.389
321.712
321.99
322.222
322.405
322.539
322.619
322.646
322.615
322.526
322.375
322.162
321.884
321.539
321.126
320.642
320.086
319.455
318.748
317.96
317.088
316.126
315.066
313.897
312.601
311.149
309.496
307.566
305.217
302.175
302.26
305.464
307.953
310.003
311.759
313.303
314.69
315.953
317.115
318.193
319.197
320.137
321.018
321.844
322.618
323.341
324.014
324.637
325.209
325.73
326.197
326.61
326.966
327.263
327.498
327.668
327.771
327.805
327.766
327.652
327.46
327.188
326.833
326.393
325.865
325.247
324.538
323.733
322.831
321.827
320.717
319.494
318.149
316.669
315.034
313.214
311.16
308.793
305.973
302.431
302.444
306.011
308.848
311.225
313.288
315.119
316.773
318.286
319.683
320.981
322.194
323.33
324.396
325.396
326.333
327.209
328.024
328.78
329.474
330.106
330.673
331.174
331.606
331.966
332.251
332.458
332.584
332.625
332.578
332.44
332.207
331.877
331.447
330.914
330.274
329.526
328.667
327.693
326.602
325.388
324.048
322.573
320.954
319.177
317.221
315.055
312.63
309.867
306.629
302.652
302.605
306.488
309.633
312.306
314.649
316.746
318.651
320.401
322.021
323.531
324.944
326.269
327.513
328.681
329.777
330.802
331.756
332.641
333.453
334.193
334.858
335.445
335.951
336.373
336.708
336.95
337.098
337.146
337.092
336.93
336.658
336.272
335.769
335.145
334.398
333.523
332.518
331.381
330.106
328.69
327.128
325.411
323.53
321.471
319.212
316.722
313.954
310.829
307.213
302.848
302.747
306.914
310.335
313.276
315.877
318.219
320.359
322.332
324.164
325.875
327.479
328.986
330.402
331.732
332.981
334.15
335.239
336.248
337.176
338.021
338.78
339.451
340.029
340.511
340.893
341.171
341.34
341.395
341.333
341.15
340.84
340.4
339.826
339.114
338.262
337.265
336.12
334.825
333.374
331.764
329.988
328.041
325.91
323.583
321.039
318.247
315.16
311.703
307.743
303.025
302.875
307.297
310.969
314.155
316.992
319.563
321.921
324.103
326.136
328.038
329.824
331.503
333.083
334.57
335.966
337.273
338.491
339.621
340.66
341.606
342.457
343.208
343.856
344.396
344.825
345.136
345.326
345.389
345.32
345.115
344.768
344.276
343.635
342.839
341.886
340.772
339.493
338.045
336.426
334.63
332.652
330.484
328.118
325.538
322.726
319.651
316.268
312.503
308.227
303.187
302.992
307.645
311.546
314.956
318.011
320.792
323.354
325.733
327.954
330.036
331.994
333.838
335.575
337.21
338.746
340.185
341.528
342.773
343.918
344.962
345.9
346.729
347.444
348.041
348.514
348.858
349.068
349.138
349.063
348.837
348.455
347.914
347.207
346.331
345.282
344.055
342.648
341.056
339.276
337.304
335.133
332.758
330.168
327.351
324.287
320.948
317.29
313.24
308.672
303.336
303.098
307.962
312.072
315.687
318.943
321.921
324.672
327.233
329.63
331.882
334.002
336.001
337.886
339.662
341.332
342.897
344.358
345.713
346.96
348.097
349.119
350.022
350.801
351.452
351.968
352.343
352.572
352.649
352.568
352.323
351.908
351.319
350.551
349.598
348.458
347.125
345.596
343.867
341.935
339.795
337.443
334.872
332.072
329.032
325.733
322.148
318.234
313.921
309.083
303.473
303.195
308.252
312.554
316.357
319.798
322.955
325.882
328.613
331.175
333.585
335.858
338.003
340.027
341.936
343.732
345.416
346.989
348.448
349.792
351.016
352.118
353.091
353.932
354.634
355.19
355.596
355.843
355.927
355.84
355.577
355.131
354.498
353.671
352.646
351.419
349.985
348.342
346.484
344.409
342.112
339.589
336.833
333.838
330.59
327.072
323.258
319.107
314.549
309.462
303.6
303.283
308.517
312.993
316.969
320.58
323.903
326.992
329.881
332.595
335.152
337.567
339.848
342.003
344.036
345.951
347.747
349.425
350.982
352.417
353.724
354.901
355.941
356.84
357.59
358.185
358.618
358.884
358.974
358.882
358.602
358.127
357.451
356.57
355.477
354.169
352.641
350.89
348.911
346.701
344.258
341.575
338.649
335.47
332.028
328.307
324.282
319.911
315.128
309.811
303.717
303.364
308.758
313.394
317.528
321.293
324.769
328.007
331.04
333.895
336.589
339.135
341.543
343.819
345.968
347.993
349.893
351.669
353.319
354.838
356.224
357.471
358.573
359.526
360.321
360.952
361.413
361.695
361.791
361.695
361.399
360.897
360.182
359.25
358.094
356.71
355.094
353.242
351.151
348.817
346.237
343.406
340.321
336.973
333.352
329.444
325.223
320.65
315.66
310.132
303.824
303.437
308.977
313.757
318.035
321.941
325.556
328.929
332.096
335.079
337.898
340.565
343.09
345.478
347.734
349.861
351.858
353.725
355.459
357.058
358.516
359.828
360.989
361.991
362.829
363.494
363.979
364.277
364.379
364.278
363.968
363.441
362.69
361.71
360.496
359.043
357.346
355.401
353.206
350.757
348.05
345.084
341.852
338.348
334.564
330.483
326.083
321.326
316.146
310.425
303.922
303.502
309.174
314.085
318.492
322.526
326.267
329.763
333.05
336.151
339.084
341.861
344.492
346.982
349.337
351.557
353.643
355.593
357.405
359.076
360.601
361.973
363.187
364.236
365.113
365.809
366.317
366.629
366.737
366.632
366.309
365.759
364.975
363.952
362.685
361.167
359.395
357.366
355.076
352.521
349.7
346.609
343.244
339.598
335.664
331.427
326.864
321.938
316.587
310.691
304.011
303.561
309.35
314.378
318.901
323.05
326.903
330.51
333.905
337.112
340.147
343.024
345.751
348.334
350.777
353.082
355.248
357.274
359.158
360.894
362.479
363.906
365.169
366.26
367.172
367.897
368.426
368.751
368.864
368.756
368.421
367.85
367.037
365.975
364.658
363.083
361.244
359.138
356.761
354.112
351.187
347.983
344.497
340.724
336.654
332.276
327.566
322.49
316.983
310.93
304.09
303.613
309.506
314.638
319.263
323.513
327.467
331.172
334.663
337.963
341.09
344.056
346.868
349.534
352.057
354.437
356.675
358.769
360.716
362.512
364.151
365.627
366.933
368.062
369.006
369.756
370.304
370.641
370.759
370.649
370.303
369.713
368.873
367.776
366.417
364.789
362.89
360.715
358.262
355.527
352.509
349.205
345.612
341.724
337.535
333.031
328.191
322.98
317.335
311.142
304.161
303.659
309.642
314.864
319.579
323.918
327.958
331.749
335.324
338.707
341.914
344.957
347.845
350.584
353.176
355.623
357.924
360.078
362.081
363.929
365.615
367.135
368.48
369.642
370.614
371.387
371.951
372.299
372.421
372.308
371.953
371.347
370.484
369.356
367.958
366.286
364.333
362.098
359.577
356.768
353.668
350.276
346.589
342.601
338.306
333.692
328.737
323.409
317.644
311.328
304.223
303.697
309.758
315.057
319.848
324.263
328.378
332.243
335.89
339.343
342.619
345.729
348.682
351.483
354.135
356.639
358.995
361.2
363.252
365.144
366.872
368.429
369.807
370.998
371.995
372.787
373.366
373.723
373.848
373.734
373.37
372.751
371.867
370.713
369.283
367.57
365.573
363.286
360.706
357.833
354.663
351.195
347.427
343.353
338.968
334.259
329.206
323.776
317.908
311.487
304.277
303.73
309.855
315.218
320.073
324.55
328.728
332.654
336.361
339.873
343.206
346.372
349.379
352.232
354.934
357.486
359.888
362.136
364.228
366.158
367.921
369.509
370.915
372.13
373.147
373.956
374.547
374.911
375.04
374.924
374.554
373.923
373.022
371.846
370.388
368.643
366.607
364.277
361.649
358.722
355.494
351.962
348.126
343.98
339.519
334.731
329.597
324.083
318.129
311.62
304.321
303.755
309.932
315.346
320.252
324.78
329.007
332.982
336.737
340.296
343.675
346.886
349.936
352.831
355.573
358.164
360.602
362.886
365.01
366.97
368.76
370.374
371.802
373.037
374.07
374.892
375.493
375.864
375.995
375.877
375.502
374.862
373.948
372.754
371.274
369.503
367.436
365.071
362.404
359.434
356.158
352.577
348.686
344.483
339.961
335.11
329.91
324.329
318.305
311.726
304.357
303.775
309.99
315.443
320.386
324.952
329.216
333.228
337.019
340.614
344.027
347.271
350.354
353.28
356.053
358.673
361.139
363.448
365.596
367.579
369.391
371.023
372.468
373.718
374.764
375.595
376.204
376.579
376.712
376.593
376.214
375.567
374.643
373.435
371.939
370.148
368.058
365.667
362.971
359.968
356.658
353.038
349.106
344.86
340.293
335.394
330.145
324.513
318.438
311.806
304.383
303.788
310.028
315.507
320.476
325.067
329.356
333.392
337.207
340.825
344.262
347.528
350.633
353.58
356.373
359.012
361.496
363.823
365.988
367.986
369.811
371.456
372.913
374.172
375.226
376.064
376.678
377.056
377.191
377.071
376.69
376.037
375.106
373.89
372.383
370.579
368.474
366.065
363.349
360.325
356.991
353.345
349.387
345.111
340.514
335.584
330.302
324.636
318.526
311.859
304.401
303.794
310.048
315.539
320.52
325.124
329.425
333.474
337.301
340.931
344.379
347.657
350.772
353.73
356.533
359.182
361.675
364.01
366.183
368.189
370.021
371.673
373.135
374.4
375.457
376.299
376.915
377.295
377.43
377.31
376.927
376.273
375.338
374.118
372.605
370.794
368.681
366.264
363.538
360.503
357.157
353.499
349.527
345.237
340.625
335.679
330.38
324.697
318.57
311.886
304.41
303.794
310.048
315.539
320.52
325.124
329.425
333.474
337.301
340.931
344.379
347.657
350.772
353.73
356.533
359.182
361.675
364.01
366.183
368.189
370.021
371.673
373.135
374.4
375.457
376.299
376.915
377.295
377.43
377.31
376.927
376.273
375.338
374.118
372.605
370.794
368.681
366.264
363.538
360.503
357.157
353.499
349.527
345.237
340.625
335.679
330.38
324.697
318.57
311.886
304.41
303.788
310.028
315.507
320.476
325.067
329.356
333.392
337.207
340.825
344.262
347.528
350.633
353.58
356.373
359.012
361.496
363.823
365.988
367.986
369.811
371.456
372.913
374.172
375.226
376.064
376.678
377.056
377.191
377.071
376.69
376.037
375.106
373.89
372.383
370.579
368.474
366.065
363.349
360.325
356.991
353.345
349.387
345.111
340.514
335.584
330.302
324.636
318.526
311.859
304.401
303.775
309.99
315.443
320.386
324.952
329.216
333.228
337.019
340.614
344.027
347.271
350.354
353.28
356.053
358.673
361.139
363.448
365.597
367.58
369.391
371.023
372.468
373.718
374.764
375.595
376.204
376.579
376.712
376.594
376.214
375.567
374.643
373.435
371.939
370.148
368.058
365.667
362.971
359.968
356.658
353.038
349.106
344.86
340.293
335.394
330.145
324.513
318.438
311.806
304.383
303.755
309.932
315.346
320.252
324.78
329.007
332.982
336.737
340.296
343.675
346.886
349.936
352.831
355.574
358.164
360.603
362.886
365.01
366.97
368.761
370.374
371.802
373.037
374.071
374.892
375.493
375.864
375.995
375.877
375.502
374.862
373.948
372.754
371.274
369.503
367.436
365.071
362.404
359.434
356.158
352.577
348.686
344.483
339.961
335.11
329.91
324.329
318.305
311.726
304.357
303.73
309.855
315.218
320.073
324.55
328.728
332.654
336.361
339.873
343.206
346.372
349.379
352.232
354.934
357.487
359.888
362.137
364.228
366.158
367.921
369.509
370.915
372.131
373.147
373.956
374.547
374.912
375.04
374.924
374.554
373.923
373.022
371.846
370.388
368.643
366.607
364.277
361.649
358.722
355.494
351.962
348.126
343.98
339.519
334.731
329.597
324.083
318.129
311.62
304.321
303.697
309.758
315.057
319.848
324.263
328.378
332.243
335.89
339.343
342.619
345.729
348.682
351.483
354.135
356.639
358.995
361.201
363.252
365.144
366.872
368.429
369.807
370.999
371.995
372.787
373.366
373.723
373.848
373.734
373.371
372.751
371.867
370.713
369.283
367.571
365.573
363.286
360.706
357.833
354.663
351.195
347.427
343.353
338.967
334.258
329.206
323.776
317.908
311.487
304.277
303.659
309.642
314.864
319.579
323.918
327.958
331.749
335.324
338.707
341.914
344.957
347.845
350.584
353.176
355.623
357.924
360.078
362.081
363.929
365.616
367.135
368.48
369.642
370.614
371.387
371.952
372.299
372.421
372.308
371.953
371.347
370.484
369.356
367.958
366.286
364.333
362.098
359.577
356.768
353.668
350.276
346.589
342.601
338.306
333.691
328.737
323.408
317.644
311.328
304.223
303.613
309.506
314.638
319.263
323.514
327.467
331.172
334.663
337.963
341.09
344.056
346.869
349.535
352.057
354.437
356.676
358.77
360.717
362.512
364.151
365.627
366.934
368.063
369.006
369.757
370.304
370.641
370.759
370.649
370.303
369.713
368.873
367.776
366.417
364.789
362.89
360.715
358.262
355.527
352.509
349.205
345.612
341.724
337.535
333.03
328.191
322.98
317.335
311.142
304.161
303.561
309.35
314.378
318.901
323.05
326.903
330.51
333.905
337.112
340.147
343.024
345.751
348.334
350.778
353.082
355.249
357.275
359.158
360.895
362.479
363.906
365.169
366.26
367.172
367.897
368.426
368.751
368.864
368.757
368.421
367.85
367.037
365.975
364.659
363.083
361.244
359.138
356.761
354.112
351.186
347.983
344.497
340.723
336.654
332.276
327.566
322.49
316.983
310.929
304.09
303.502
309.174
314.085
318.492
322.527
326.267
329.764
333.05
336.151
339.084
341.861
344.492
346.983
349.337
351.557
353.643
355.593
357.406
359.077
360.601
361.973
363.188
364.237
365.113
365.809
366.317
366.629
366.737
366.633
366.309
365.759
364.975
363.953
362.685
361.167
359.396
357.366
355.076
352.521
349.7
346.609
343.244
339.598
335.664
331.426
326.864
321.938
316.587
310.691
304.011
303.437
308.977
313.757
318.035
321.941
325.556
328.93
332.096
335.08
337.898
340.565
343.09
345.478
347.735
349.861
351.859
353.725
355.46
357.058
358.516
359.828
360.989
361.992
362.829
363.494
363.979
364.277
364.379
364.279
363.968
363.441
362.69
361.711
360.496
359.043
357.346
355.401
353.206
350.757
348.05
345.084
341.852
338.348
334.563
330.483
326.083
321.325
316.146
310.425
303.922
303.364
308.758
313.394
317.528
321.293
324.769
328.007
331.04
333.895
336.589
339.135
341.543
343.819
345.969
347.993
349.894
351.67
353.319
354.839
356.224
357.471
358.574
359.526
360.322
360.953
361.413
361.695
361.791
361.695
361.399
360.897
360.182
359.25
358.094
356.71
355.094
353.242
351.151
348.817
346.237
343.406
340.321
336.973
333.352
329.443
325.222
320.65
315.66
310.132
303.824
303.283
308.517
312.993
316.969
320.58
323.904
326.992
329.881
332.595
335.152
337.567
339.848
342.004
344.037
345.951
347.747
349.425
350.983
352.417
353.725
354.902
355.942
356.84
357.59
358.185
358.619
358.884
358.974
358.882
358.602
358.127
357.452
356.57
355.478
354.169
352.641
350.89
348.911
346.701
344.258
341.575
338.648
335.47
332.028
328.307
324.282
319.911
315.128
309.811
303.717
303.195
308.252
312.554
316.357
319.798
322.956
325.882
328.614
331.175
333.585
335.858
338.003
340.028
341.936
343.732
345.417
346.989
348.448
349.792
351.017
352.118
353.092
353.933
354.634
355.191
355.596
355.844
355.927
355.841
355.577
355.132
354.498
353.671
352.646
351.419
349.986
348.342
346.484
344.409
342.112
339.589
336.833
333.838
330.589
327.072
323.258
319.107
314.549
309.462
303.6
303.098
307.962
312.072
315.688
318.943
321.921
324.672
327.233
329.63
331.882
334.003
336.002
337.887
339.663
341.333
342.898
344.358
345.713
346.961
348.097
349.119
350.022
350.802
351.452
351.968
352.344
352.573
352.649
352.568
352.323
351.909
351.32
350.551
349.599
348.458
347.125
345.596
343.867
341.935
339.795
337.443
334.872
332.072
329.032
325.733
322.148
318.234
313.921
309.083
303.473
302.992
307.645
311.546
314.956
318.011
320.793
323.355
325.733
327.954
330.036
331.994
333.838
335.575
337.21
338.746
340.186
341.528
342.773
343.919
344.962
345.901
346.729
347.445
348.041
348.514
348.859
349.068
349.138
349.063
348.837
348.456
347.914
347.207
346.331
345.282
344.055
342.648
341.056
339.276
337.304
335.133
332.758
330.168
327.351
324.287
320.948
317.29
313.24
308.672
303.336
302.875
307.297
310.97
314.155
316.992
319.563
321.921
324.103
326.136
328.038
329.824
331.503
333.084
334.57
335.966
337.273
338.492
339.621
340.66
341.607
342.457
343.208
343.856
344.397
344.825
345.137
345.327
345.389
345.321
345.115
344.769
344.277
343.635
342.839
341.886
340.772
339.493
338.045
336.426
334.63
332.652
330.484
328.118
325.538
322.726
319.651
316.268
312.503
308.227
303.187
302.747
306.914
310.335
313.277
315.877
318.219
320.359
322.332
324.164
325.876
327.48
328.986
330.402
331.733
332.981
334.15
335.239
336.248
337.176
338.021
338.781
339.451
340.029
340.512
340.894
341.171
341.34
341.396
341.334
341.15
340.84
340.4
339.826
339.115
338.262
337.265
336.121
334.825
333.374
331.764
329.988
328.041
325.91
323.583
321.039
318.247
315.16
311.702
307.743
303.025
302.605
306.489
309.633
312.307
314.649
316.746
318.651
320.401
322.022
323.531
324.944
326.269
327.513
328.682
329.777
330.802
331.757
332.641
333.454
334.194
334.859
335.446
335.952
336.374
336.708
336.951
337.098
337.147
337.092
336.931
336.659
336.273
335.769
335.146
334.398
333.523
332.519
331.381
330.106
328.69
327.128
325.411
323.53
321.47
319.211
316.722
313.953
310.829
307.213
302.848
302.444
306.011
308.848
311.226
313.288
315.119
316.773
318.286
319.683
320.982
322.194
323.33
324.396
325.396
326.333
327.209
328.025
328.78
329.474
330.106
330.674
331.175
331.606
331.966
332.252
332.459
332.584
332.625
332.578
332.44
332.208
331.878
331.447
330.914
330.275
329.527
328.667
327.693
326.602
325.388
324.048
322.573
320.954
319.177
317.221
315.055
312.63
309.867
306.629
302.652
302.26
305.464
307.953
310.003
311.759
313.304
314.69
315.953
317.115
318.193
319.198
320.138
321.019
321.845
322.618
323.341
324.014
324.637
325.209
325.73
326.198
326.611
326.967
327.263
327.498
327.668
327.772
327.805
327.766
327.652
327.46
327.188
326.833
326.393
325.865
325.248
324.538
323.733
322.831
321.827
320.717
319.494
318.149
316.669
315.034
313.214
311.159
308.792
305.973
302.431
302.041
304.819
306.91
308.592
310.012
311.248
312.35
313.349
314.266
315.115
315.904
316.642
317.333
317.981
318.587
319.153
319.68
320.168
320.616
321.023
321.389
321.712
321.99
322.222
322.406
322.539
322.62
322.646
322.615
322.526
322.376
322.162
321.884
321.539
321.126
320.642
320.086
319.455
318.748
317.96
317.088
316.126
315.066
313.897
312.601
311.149
309.496
307.566
305.217
302.175
301.766
304.023
305.645
306.913
307.964
308.869
309.671
310.395
311.057
311.669
312.238
312.769
313.265
313.731
314.166
314.573
314.951
315.301
315.622
315.915
316.177
316.409
316.608
316.775
316.906
317.002
317.06
317.078
317.056
316.992
316.884
316.731
316.531
316.284
315.987
315.64
315.24
314.787
314.278
313.711
313.084
312.391
311.626
310.78
309.839
308.779
307.561
306.115
304.308
301.862
301.382
302.963
304.024
304.823
305.472
306.026
306.514
306.952
307.353
307.722
308.065
308.386
308.685
308.965
309.227
309.472
309.7
309.911
310.104
310.28
310.438
310.577
310.697
310.798
310.877
310.934
310.969
310.98
310.967
310.928
310.863
310.771
310.651
310.502
310.323
310.114
309.873
309.6
309.294
308.952
308.573
308.155
307.693
307.181
306.609
305.963
305.213
304.307
303.134
301.44
300.737
301.382
301.766
302.043
302.263
302.45
302.614
302.761
302.895
303.018
303.133
303.24
303.34
303.434
303.521
303.603
303.679
303.749
303.814
303.873
303.925
303.972
304.012
304.045
304.072
304.091
304.103
304.106
304.102
304.089
304.067
304.036
303.996
303.946
303.887
303.817
303.737
303.645
303.543
303.429
303.302
303.162
303.008
302.836
302.645
302.427
302.173
301.861
301.44
300.756
300.298
300.735
301.058
301.313
301.524
301.706
301.867
302.013
302.146
302.27
302.384
302.491
302.591
302.685
302.773
302.855
302.931
303.001
303.066
303.125
303.178
303.224
303.265
303.298
303.325
303.344
303.355
303.359
303.355
303.342
303.32
303.289
303.249
303.199
303.139
303.069
302.989
302.898
302.795
302.681
302.554
302.415
302.261
302.091
301.901
301.688
301.443
301.153
300.792
300.317
300.735
301.915
302.835
303.578
304.202
304.743
305.224
305.659
306.058
306.426
306.769
307.089
307.389
307.669
307.932
308.177
308.405
308.616
308.81
308.987
309.145
309.285
309.405
309.506
309.585
309.643
309.678
309.689
309.676
309.637
309.572
309.479
309.359
309.209
309.03
308.821
308.58
308.306
308
307.658
307.28
306.862
306.402
305.893
305.328
304.694
303.969
303.119
302.087
300.792
301.058
302.834
304.273
305.463
306.476
307.362
308.153
308.871
309.531
310.141
310.709
311.24
311.737
312.203
312.639
313.046
313.425
313.776
314.098
314.391
314.654
314.887
315.087
315.254
315.386
315.481
315.539
315.558
315.536
315.472
315.364
315.21
315.01
314.762
314.465
314.117
313.716
313.263
312.754
312.187
311.56
310.868
310.106
309.266
308.334
307.293
306.112
304.745
303.12
301.153
301.311
303.575
305.459
307.049
308.423
309.635
310.724
311.716
312.629
313.475
314.264
315.002
315.693
316.342
316.949
317.516
318.044
318.533
318.982
319.39
319.757
320.081
320.36
320.592
320.776
320.91
320.991
321.017
320.987
320.897
320.746
320.533
320.254
319.909
319.494
319.01
318.453
317.821
317.113
316.325
315.454
314.493
313.437
312.275
310.991
309.563
307.955
306.117
303.974
301.445
301.521
304.194
306.465
308.414
310.119
311.636
313.007
314.261
315.419
316.494
317.498
318.438
319.32
320.147
320.922
321.646
322.321
322.945
323.519
324.041
324.51
324.923
325.28
325.578
325.813
325.984
326.088
326.121
326.082
325.968
325.776
325.503
325.147
324.706
324.177
323.559
322.848
322.042
321.139
320.135
319.026
317.805
316.464
314.992
313.371
311.578
309.574
307.307
304.704
301.692
301.7
304.728
307.34
309.612
311.62
313.421
315.059
316.562
317.954
319.251
320.462
321.599
322.665
323.667
324.605
325.483
326.3
327.057
327.753
328.386
328.955
329.458
329.891
330.251
330.537
330.745
330.871
330.912
330.865
330.727
330.494
330.163
329.732
329.197
328.557
327.808
326.947
325.972
324.879
323.665
322.325
320.852
319.238
317.469
315.529
313.392
311.02
308.362
305.348
301.908
301.858
305.199
308.116
310.68
312.966
315.032
316.919
318.659
320.274
321.782
323.194
324.519
325.764
326.934
328.032
329.059
330.015
330.902
331.716
332.458
333.125
333.713
334.221
334.644
334.979
335.222
335.37
335.419
335.364
335.202
334.93
334.543
334.039
333.413
332.664
331.788
330.782
329.643
328.367
326.95
325.388
323.673
321.797
319.746
317.504
315.045
312.332
309.314
305.926
302.102
302
305.621
308.812
311.643
314.185
316.496
318.617
320.579
322.407
324.116
325.719
327.226
328.643
329.976
331.227
332.398
333.489
334.501
335.431
336.278
337.039
337.711
338.291
338.775
339.158
339.436
339.605
339.661
339.599
339.415
339.104
338.664
338.088
337.375
336.521
335.523
334.376
333.078
331.626
330.015
328.24
326.294
324.168
321.85
319.323
316.562
313.531
310.183
306.452
302.278
302.127
306.002
309.443
312.517
315.296
317.834
320.173
322.345
324.373
326.273
328.058
329.738
331.321
332.809
334.208
335.517
336.738
337.87
338.912
339.861
340.713
341.466
342.116
342.658
343.088
343.4
343.59
343.653
343.584
343.379
343.031
342.538
341.895
341.098
340.143
339.026
337.745
336.296
334.675
332.877
330.899
328.733
326.371
323.801
321.006
317.962
314.636
310.981
306.934
302.44
302.243
306.349
310.018
313.316
316.312
319.061
321.604
323.972
326.188
328.268
330.226
332.071
333.81
335.448
336.987
338.429
339.775
341.022
342.171
343.217
344.157
344.988
345.705
346.304
346.778
347.123
347.333
347.404
347.328
347.102
346.72
346.177
345.469
344.591
343.539
342.311
340.901
339.307
337.525
335.55
333.379
331.005
328.42
325.612
322.565
319.258
315.656
311.717
307.379
302.588
302.349
306.666
310.543
314.047
317.244
320.188
322.921
325.472
327.864
330.114
332.234
334.235
336.122
337.901
339.574
341.142
342.606
343.964
345.215
346.354
347.379
348.284
349.065
349.718
350.235
350.611
350.841
350.918
350.837
350.591
350.176
349.586
348.815
347.861
346.718
345.382
343.851
342.119
340.185
338.043
335.69
333.12
330.324
327.293
324.011
320.457
316.601
312.397
307.789
302.726
302.446
306.955
311.024
314.716
318.098
321.223
324.131
326.853
329.409
331.818
334.091
336.238
338.265
340.177
341.976
343.664
345.24
346.703
348.049
349.277
350.381
351.358
352.2
352.904
353.462
353.868
354.117
354.201
354.114
353.85
353.403
352.768
351.94
350.913
349.683
348.246
346.6
344.739
342.661
340.362
337.838
335.083
332.091
328.852
325.35
321.568
317.473
313.025
308.169
302.852
302.534
307.22
311.464
315.329
318.88
322.172
325.242
328.121
330.83
333.387
335.802
338.085
340.243
342.28
344.198
345.998
347.679
349.241
350.678
351.99
353.169
354.212
355.113
355.865
356.461
356.896
357.162
357.253
357.161
356.88
356.404
355.727
354.843
353.748
352.438
350.906
349.152
347.17
344.957
342.511
339.827
336.901
333.725
330.292
326.587
322.592
318.278
313.605
308.518
302.969
302.615
307.461
311.865
315.888
319.595
323.038
326.258
329.282
332.132
334.825
337.372
339.782
342.062
344.215
346.243
348.148
349.928
351.581
353.104
354.493
355.743
356.849
357.804
358.601
359.234
359.696
359.979
360.075
359.979
359.682
359.179
358.463
357.528
356.37
354.983
353.364
351.509
349.414
347.076
344.493
341.661
338.575
335.231
331.618
327.725
323.535
319.019
314.138
308.839
303.077
302.688
307.68
312.229
316.395
320.244
323.827
327.182
330.339
333.319
336.137
338.805
341.332
343.724
345.984
348.115
350.116
351.988
353.726
355.328
356.79
358.105
359.269
360.274
361.114
361.781
362.267
362.566
362.668
362.568
362.257
361.728
360.976
359.994
358.777
357.32
355.62
353.672
351.472
349.02
346.311
343.342
340.11
336.609
332.832
328.767
324.396
319.695
314.624
309.133
303.175
302.754
307.878
312.558
316.853
320.83
324.539
328.018
331.295
334.392
337.324
340.103
342.737
345.231
347.59
349.814
351.905
353.86
355.676
357.351
358.879
360.255
361.472
362.524
363.403
364.101
364.61
364.923
365.031
364.927
364.603
364.051
363.266
362.241
360.97
359.449
357.674
355.641
353.346
350.788
347.964
344.87
341.504
337.861
333.934
329.712
325.179
320.309
315.066
309.399
303.264
302.813
308.055
312.852
317.263
321.354
325.176
328.766
332.152
335.355
338.39
341.269
343.999
346.586
349.033
351.343
353.514
355.545
357.432
359.173
360.762
362.193
363.459
364.553
365.467
366.193
366.724
367.05
367.163
367.056
366.719
366.147
365.332
364.268
362.948
361.37
359.527
357.416
355.036
352.382
349.453
346.247
342.76
338.989
334.927
330.563
325.883
320.862
315.463
309.638
303.344
302.865
308.211
313.111
317.626
321.819
325.741
329.429
332.911
336.208
339.335
342.303
345.119
347.789
350.316
352.701
354.944
357.043
358.995
360.794
362.438
363.917
365.227
366.359
367.305
368.058
368.607
368.945
369.063
368.952
368.606
368.015
367.173
366.073
364.711
363.08
361.177
358.998
356.54
353.801
350.779
347.472
343.878
339.992
335.809
331.32
326.509
321.353
315.816
309.851
303.415
302.91
308.347
313.338
317.942
322.224
326.233
330.007
333.574
336.954
340.161
343.206
346.098
348.841
351.437
353.889
356.196
358.355
360.363
362.215
363.906
365.429
366.777
367.943
368.917
369.692
370.258
370.607
370.729
370.616
370.26
369.653
368.787
367.657
366.256
364.58
362.624
360.384
357.858
355.045
351.941
348.546
344.857
340.871
336.582
331.982
327.057
321.783
316.125
310.037
303.477
302.949
308.464
313.532
318.213
322.57
326.654
330.502
334.141
337.591
340.867
343.98
346.936
349.742
352.399
354.908
357.269
359.48
361.536
363.433
365.165
366.726
368.108
369.302
370.301
371.096
371.676
372.034
372.16
372.045
371.681
371.06
370.174
369.018
367.584
365.868
363.866
361.574
358.99
356.112
352.938
349.467
345.697
341.625
337.245
332.551
327.527
322.151
316.39
310.197
303.53
302.982
308.561
313.693
318.438
322.858
327.005
330.914
334.613
338.122
341.456
344.624
347.635
350.493
353.2
355.758
358.164
360.418
362.515
364.45
366.217
367.809
369.218
370.437
371.457
372.267
372.86
373.226
373.355
373.238
372.868
372.235
371.332
370.153
368.692
366.943
364.903
362.568
359.935
357.003
353.771
350.236
346.398
342.253
337.798
333.025
327.919
322.459
316.611
310.33
303.575
303.007
308.638
313.822
318.617
323.088
327.285
331.243
334.991
338.547
341.926
345.14
348.194
351.093
353.841
356.437
358.881
361.169
363.299
365.264
367.058
368.676
370.108
371.346
372.382
373.206
373.809
374.181
374.312
374.194
373.818
373.176
372.26
371.063
369.58
367.805
365.734
363.364
360.692
357.717
354.437
350.852
346.959
342.757
338.241
333.404
328.232
322.705
316.788
310.437
303.61
303.027
308.696
313.918
318.752
323.261
327.494
331.49
335.273
338.865
342.279
345.526
348.613
351.544
354.322
356.947
359.418
361.733
363.887
365.875
367.69
369.327
370.776
372.029
373.077
373.911
374.521
374.898
375.031
374.912
374.532
373.883
372.957
371.747
370.247
368.452
366.358
363.962
361.26
358.253
354.938
351.314
347.381
343.135
338.574
333.689
328.468
322.89
316.921
310.517
303.637
303.04
308.735
313.982
318.841
323.376
327.634
331.654
335.462
339.077
342.514
345.783
348.892
351.844
354.642
357.287
359.777
362.109
364.279
366.282
368.112
369.761
371.221
372.484
373.541
374.381
374.996
375.376
375.511
375.391
375.009
374.355
373.422
372.203
370.692
368.884
366.774
364.36