/*--------------------------------*- C++ -*----------------------------------*\
| =========                 |                                                 |
| \\      /  F ield         | OpenFOAM: The Open Source CFD Toolbox           |
|  \\    /   O peration     | Version:  5.x                                   |
|   \\  /    A nd           | Web:      www.OpenFOAM.org                      |
|    \\/     M anipulation  |                                                 |
\*---------------------------------------------------------------------------*/
FoamFile
{
    version     2.0;
    format      ascii;
    class       volScalarField;
    location    "1.6";
    object      gradTx;
}
// * * * * * * * * * * * * * * * * * * * * * * * * * * * * * * * * * * * * * //

dimensions      [0 -1 0 1 0 0 0];

internalField   nonuniform List<scalar> 
25000
(
5273.05
2549.5
1625.51
1215.44
990.284
847.071
746.411
670.427
609.871
559.472
515.999
477.351
442.1
409.233
378.006
347.857
318.35
289.139
259.947
230.548
200.757
170.422
139.422
107.658
75.0549
41.5532
7.11115
-28.3004
-64.7007
-102.102
-140.517
-179.958
-220.454
-262.052
-304.834
-348.937
-394.577
-442.088
-491.984
-545.045
-602.476
-666.154
-739.102
-826.396
-937.105
-1088.95
-1321.18
-1736.66
-2664.3
-5389.69
10789.3
6529.18
4573.25
3541.83
2925.22
2517.08
2224.57
2001.45
1822.52
1673.02
1543.71
1428.55
1323.36
1225.19
1131.85
1041.68
953.394
865.969
778.58
690.555
601.344
510.498
417.652
322.516
224.86
124.513
21.3492
-84.7175
-193.743
-305.763
-420.809
-538.922
-660.179
-784.717
-912.776
-1044.75
-1181.28
-1323.32
-1472.39
-1630.74
-1801.86
-1991.15
-2207.2
-2464.21
-2786.83
-3220.83
-3858.63
-4906.25
-6873.12
-11138.7
14349.2
9573.12
7098.7
5665.31
4752.61
4124.04
3662.31
3304.56
3014.72
2770.83
2558.86
2369.4
2195.92
2033.69
1879.24
1729.87
1583.51
1438.48
1293.45
1147.31
999.17
848.283
694.053
536.003
373.759
207.037
35.6352
-140.585
-321.712
-507.799
-698.89
-895.046
-1096.38
-1303.1
-1515.58
-1734.45
-1960.69
-2195.85
-2442.28
-2703.53
-2985.02
-3295.05
-3646.61
-4060.7
-4572.47
-5244.03
-6191.97
-7652.28
-10144.9
-14930.1
16980.4
11997.3
9254.97
7570.81
6446.64
5645.01
5041.41
4565.51
4175.15
3843.77
3553.88
3293.55
3054.32
2830.03
2616.05
2408.81
2205.5
2003.87
1802.11
1598.7
1392.43
1182.27
967.42
747.216
521.148
288.832
49.9933
-195.551
-447.914
-707.158
-973.329
-1246.49
-1526.78
-1814.44
-2109.96
-2414.13
-2728.23
-3054.24
-3395.19
-3755.65
-4142.48
-4566.1
-5042.54
-5597
-6270.4
-7131.97
-8305.28
-10027
-12794.7
-17790.6
19091.4
14010.5
11120.2
9277.57
8004.51
7070.46
6351.25
5774.43
5295.15
4884.31
4522.27
4195.32
3893.61
3609.82
3338.41
3075.05
2816.32
2559.45
2302.18
2042.66
1779.35
1511
1236.58
955.269
666.437
369.606
64.439
-249.283
-571.685
-902.829
-1242.75
-1591.5
-1949.2
-2316.12
-2692.8
-3080.14
-3479.61
-3893.5
-4325.33
-4780.35
-5266.39
-5795.22
-6384.6
-7061.9
-7870.39
-8881.12
-10217
-12107.7
-15030.4
-20127.7
20871.1
15737.4
12759.2
10813
9434.17
8399.31
7587.04
6925.31
6368.59
5886.64
5458.67
5069.86
4709.39
4369.1
4042.75
3725.39
3413.1
3102.65
2791.42
2477.22
2158.26
1833.05
1500.38
1159.3
809.045
449.065
78.9744
-301.472
-692.401
-1093.86
-1505.85
-1928.4
-2361.59
-2805.69
-3261.22
-3729.12
-4210.98
-4709.26
-5227.74
-5772.06
-6350.62
-6975.84
-7666.26
-8450.01
-9370.7
-10498.7
-11953.8
-13958.3
-16975.9
-22129.5
22418.9
17253.3
14219.1
12202.4
10747
9634.85
8747.78
8015.06
7391.44
6846.47
6358.82
5913.1
5497.85
5104.36
4725.84
4356.89
3993.16
3631.07
3267.67
2900.5
2527.52
2147.06
1757.74
1358.47
948.401
526.916
93.587
-351.84
-809.484
-1279.36
-1761.43
-2255.66
-2762.08
-3280.89
-3812.58
-4358.07
-4918.94
-5497.7
-6098.23
-6726.33
-7390.56
-8103.53
-8883.93
-9759.74
-10773.9
-11995.2
-13540.2
-15625.3
-18705.7
-23894.5
23791.7
18605.4
15533.2
13466.6
11954.2
10782.1
9834.57
9042.49
8361.31
7760.78
7219.47
6721.74
6255.78
5812.53
5384.81
4966.89
4554.08
4142.5
3728.95
3310.74
2885.62
2451.74
2007.59
1551.97
1083.95
602.862
108.248
-400.146
-922.412
-1458.52
-2008.38
-2571.87
-3148.94
-3739.7
-4344.55
-4964.32
-5600.53
-6255.62
-6933.42
-7639.67
-8382.87
-9175.49
-10035.9
-10991.6
-12084.5
-13381.4
-14996.1
-17141
-20266
-25478.9
25025
19824.3
16725
14621.5
13065.7
11846.3
10849.5
10007.6
9276.91
8627.51
8038.16
7493.14
6980.51
6490.98
6017.13
5552.99
5093.61
4634.9
4173.42
3706.29
3231.11
2745.87
2248.94
1739.04
1215.17
676.611
122.91
-446.179
-1030.71
-1630.61
-2245.69
-2875.74
-3520.61
-4180.28
-4855.03
-5545.55
-6253.22
-6980.33
-7730.55
-8509.42
-9325.2
-10190
-11121.8
-12147.1
-13306.9
-14666.4
-16336.9
-18528.1
-21686.6
-26917.2
26141.7
20930.4
17811
15679.5
14089.8
12832.4
11795
10911.1
10137.7
9445.33
8813.06
8225.21
7669.81
7137.46
6620.61
6113.09
5609.78
5106.41
4599.38
4085.64
3562.66
3028.3
2480.85
1918.94
1341.53
747.871
137.512
-489.768
-1133.98
-1794.97
-2472.46
-3166.14
-3875.72
-4601.04
-5342.22
-6099.77
-6874.87
-7669.62
-8487.42
-9333.55
-10215.9
-11146.2
-12141.6
-13228.2
-14445.6
-15857.7
-17574.1
-19802.4
-22987.3
-28231.6
27157.5
21938.1
18803.2
16649.8
15033
13744.6
12673.4
11753.8
10943.5
10213.4
9542.81
8916.29
8321.86
7750.08
7193.32
6645.31
6100.79
5555.36
5005.28
4447.39
3879.03
3297.98
2702.44
2090.98
1462.54
816.352
151.975
-530.776
-1231.85
-1951.02
-2687.91
-3442.06
-4213.06
-5000.57
-5804.53
-6625.25
-7463.68
-8321.65
-9202.29
-10110.5
-11053.8
-12043.4
-13096
-14236.6
-15504.1
-16961.2
-18716.2
-20975.2
-24181.5
-29436.8
28083.1
22857.4
19710.2
17539.2
15900.4
14586.4
13486.9
12536.8
11694.4
10931.1
10226.4
9565.08
8935.15
8327.23
7733.63
7148.02
6565.06
5980.25
5389.73
4790.26
4179.08
3553.91
2912.87
2254.51
1577.73
881.772
166.208
-569.1
-1324.04
-2098.27
-2891.33
-3702.62
-4531.56
-5377.65
-6240.61
-7120.54
-8018.13
-8934.93
-9873.75
-10839.1
-11838.2
-12881.5
-13985.3
-15173.9
-16485.4
-17981.4
-19769.4
-22054.3
-25278.5
-30543.1
28926.3
23695.5
20538.4
18353.2
16696.2
15360.8
14237.2
13261
12390.7
11598.2
10863.2
10170.5
9508.44
8867.53
8240.11
7619.79
7001.19
6379.72
5751.46
5113.08
4461.77
3795.18
3111.4
2408.93
1686.66
943.851
180.107
-604.664
-1410.27
-2236.29
-3082.12
-3947.05
-4830.31
-5731.22
-6649.3
-7584.4
-8536.95
-9508.21
-10500.7
-11518.5
-12568.3
-13660.4
-14810.2
-16041.6
-17391.8
-18921.9
-20738.4
-23045.6
-26285.1
-31557.3
29692.9
24458
21292.7
19095.6
17423.5
16070
14926
13927.2
13032.6
12214.4
11452.5
10731.8
10040.7
9369.84
8711.53
8059.37
7407.93
6752.57
6089.33
5414.82
4726.16
4020.97
3297.3
2553.65
1788.9
1002.32
193.559
-637.421
-1490.35
-2364.71
-3259.78
-4174.68
-5108.5
-6060.37
-7029.59
-8015.76
-9019.07
-10040.5
-11082.1
-12147.8
-13243.8
-14379.9
-15571
-16840.6
-18225.1
-19785.2
-21626.6
-23953
-27205.7
-32484.7
30387
25148.6
21976.6
19769.6
18084.8
16716
15554.4
14536.1
13620.4
12779.6
11993.9
11248.2
10531.1
9833.18
9146.84
8465.66
7784.19
7097.75
6402.33
5694.51
4971.38
4230.51
3469.95
2688.16
1884.06
1056.93
206.448
-667.349
-1564.12
-2483.23
-3423.84
-4384.95
-5365.47
-6364.33
-7380.63
-8413.75
-9463.59
-10530.8
-11617.3
-12726.5
-13864.3
-15040
-16268.2
-17571.7
-18986.7
-20573.1
-22436.4
-24779.7
-28043.8
-33328.6
31011.8
25770.6
22592.9
20377.6
18681.9
17300.1
16123.5
15088.4
14154.3
13293.8
12487
11719.2
10978.8
10256.7
9545.13
8837.72
8129.01
7414.3
6689.56
5951.33
5196.66
4423.13
3628.74
2811.99
1971.77
1107.42
218.651
-694.44
-1631.43
-2591.59
-3573.95
-4577.38
-5600.62
-6642.44
-7701.7
-8777.59
-9869.75
-10978.6
-12105.6
-13254.1
-14429.4
-15640.6
-16901.9
-18235.6
-19677.6
-21287.2
-23169.6
-25527.6
-28801.7
-34091.6
31569.6
26326
23143.5
20921.2
19216.4
17823.6
16634.1
15584.5
14634.6
13756.8
12931.6
12144.3
11383.4
10639.7
9905.61
9174.72
8441.56
7701.41
6950.22
6184.5
5401.31
4598.19
3773.15
2924.68
2051.7
1153.57
230.049
-718.704
-1692.18
-2689.57
-3709.79
-4751.55
-5813.47
-6894.12
-7992.19
-9106.64
-10236.9
-11383.1
-12546.6
-13730.1
-14938.9
-16181.7
-17472.3
-18832.7
-20298.3
-21928.4
-23827.6
-26198.5
-29481.3
-34775.5
32062.3
26816.6
23630.2
21401.9
19689.5
18287.2
17086.8
16024.9
15061.2
14168.6
13327.4
12523.1
11744.2
10981.6
10227.6
9475.95
8721.1
7958.34
7183.6
6393.38
5584.73
4755.16
3902.71
3025.85
2123.54
1195.16
240.523
-740.161
-1746.31
-2777.02
-3831.09
-4907.13
-6003.59
-7118.9
-8251.57
-9400.37
-10564.5
-11743.9
-12939.6
-14154.1
-15392.5
-16663.1
-17979.4
-19363.2
-20849.6
-22497.4
-24411.1
-26793.2
-30083.5
-35381.6
32491.1
27243.8
24054
21820.8
20101.9
18691.7
17482.1
16409.7
15434.4
14529
13674.2
12855.2
12060.8
11281.7
10510.6
9740.8
8967.01
8184.47
7389.1
6577.39
5746.36
4893.55
4016.98
3115.15
2187.01
1232
249.962
-758.839
-1793.75
-2853.78
-3937.64
-5043.82
-6170.64
-7316.38
-8479.41
-9658.31
-10852.1
-12060.5
-13284.3
-14525.9
-15790
-17084.7
-18423.3
-19827.3
-21331.6
-22994.7
-24921
-27312.6
-30609.4
-35910.7
32857.1
27608.4
24415.9
22178.7
20454.4
19037.7
17820.4
16739.2
15754.2
14838.2
13971.8
13140.4
12332.8
11539.8
10753.9
9968.74
9178.75
8379.27
7566.19
6736.01
5885.75
5012.94
4115.61
3192.26
2241.88
1263.92
258.261
-774.77
-1834.46
-2919.75
-4029.27
-5161.38
-6314.32
-7486.23
-8675.34
-9880.07
-11099.3
-12332.5
-13580.4
-14845.1
-16131.2
-17446.4
-18804
-20225.1
-21744.5
-23420.6
-25357.5
-27757.2
-31059.5
-36363.6
33161.2
27911.4
24716.6
22476.1
20747.5
19325.5
18102
17013.7
16020.7
15095.9
14220
13378.4
12560
11755.5
10957.4
10159.3
9355.88
8542.27
7714.43
6868.83
6002.5
5112.97
4198.27
3256.92
2287.93
1290.75
265.328
-787.985
-1868.42
-2974.85
-4105.82
-5259.63
-6434.4
-7628.17
-8839.05
-10065.3
-11305.8
-12559.7
-13827.6
-15111.5
-16415.8
-17748.1
-19121.3
-20556.7
-22088.6
-23775.4
-25721
-28127.4
-31434.2
-36740.5
33403.8
28153.1
24956.7
22713.6
20981.6
19555.5
18327
17233.1
16233.8
15302.2
14418.7
13569.1
12742
11928.3
11120.5
10312.2
9498.01
8673.11
7833.45
6975.5
6096.29
5193.35
4264.72
3308.92
2324.98
1312.38
271.082
-798.516
-1895.6
-3019
-4167.19
-5338.4
-6530.68
-7741.98
-8970.31
-10213.9
-11471.2
-12741.7
-14025.7
-15324.9
-16643.7
-17989.5
-19375.3
-20822
-22363.8
-24059.1
-26011.7
-28423.4
-31733.7
-37041.8
33585.5
28334.1
25136.4
22891.4
21157
19727.7
18495.6
17397.6
16393.7
15456.9
14567.9
13712.3
12878.7
12058.2
11243.1
10427.2
9604.86
8771.5
7922.96
7055.74
6166.86
5253.84
4314.73
3348.07
2352.89
1328.69
275.455
-806.39
-1916
-3052.15
-4213.29
-5397.59
-6603.02
-7827.49
-9068.91
-10325.4
-11595.5
-12878.4
-14174.3
-15485.1
-16814.7
-18170.8
-19565.9
-21020.9
-22570.3
-24271.9
-26229.6
-28645.3
-31958.2
-37267.7
33706.4
28454.7
25256.1
23009.9
21273.8
19842.5
18608
17507.3
16500.3
15560.1
14667.4
13807.8
12969.9
12144.8
11324.9
10503.9
9676.22
8837.21
7982.76
7109.35
6214.01
5294.26
4348.16
3374.24
2371.55
1339.61
278.397
-811.629
-1929.61
-3074.28
-4244.06
-5437.09
-6651.31
-7884.56
-9134.73
-10399.9
-11678.5
-12969.6
-14273.6
-15591.9
-16928.8
-18291.6
-19693
-21153.6
-22707.9
-24413.7
-26374.9
-28793.1
-32107.9
-37418.2
33766.9
28514.9
25315.9
23069.1
21332.2
19899.9
18664.2
17562.1
16553.6
15611.7
14717.2
13855.5
13015.6
12188.2
11365.9
10542.3
9711.93
8870.1
8012.7
7136.19
6237.62
5314.5
4364.9
3387.35
2380.9
1345.07
279.874
-814.248
-1936.41
-3085.35
-4259.46
-5456.86
-6675.48
-7913.13
-9167.67
-10437.1
-11720
-13015.3
-14323.2
-15645.4
-16985.9
-18352.1
-19756.5
-21220
-22776.7
-24484.6
-26447.5
-28867.1
-32182.7
-37493.4
33766.9
28514.9
25315.9
23069.1
21332.2
19899.9
18664.2
17562.1
16553.6
15611.7
14717.2
13855.5
13015.6
12188.2
11365.9
10542.3
9711.93
8870.1
8012.7
7136.19
6237.62
5314.5
4364.9
3387.35
2380.9
1345.07
279.867
-814.255
-1936.42
-3085.36
-4259.47
-5456.87
-6675.49
-7913.14
-9167.68
-10437.1
-11720
-13015.3
-14323.2
-15645.4
-16985.9
-18352.1
-19756.5
-21220
-22776.7
-24484.6
-26447.5
-28867
-32182.7
-37493.4
33706.5
28454.7
25256.1
23009.9
21273.8
19842.6
18608.1
17507.3
16500.3
15560.1
14667.4
13807.8
12969.9
12144.8
11324.9
10503.9
9676.22
8837.21
7982.76
7109.35
6214.01
5294.26
4348.15
3374.23
2371.54
1339.59
278.378
-811.651
-1929.63
-3074.31
-4244.09
-5437.12
-6651.34
-7884.59
-9134.76
-10399.9
-11678.5
-12969.7
-14273.6
-15592
-16928.8
-18291.6
-19693
-21153.6
-22707.9
-24413.7
-26374.9
-28793.1
-32107.9
-37418.2
33585.5
28334.2
25136.5
22891.5
21157
19727.8
18495.7
17397.7
16393.7
15456.9
14567.9
13712.3
12878.7
12058.2
11243.1
10427.2
9604.87
8771.51
7922.97
7055.75
6166.85
5253.83
4314.72
3348.05
2352.86
1328.66
275.422
-806.427
-1916.04
-3052.2
-4213.34
-5397.64
-6603.07
-7827.54
-9068.96
-10325.5
-11595.6
-12878.5
-14174.4
-15485.1
-16814.7
-18170.8
-19565.9
-21021
-22570.3
-24271.9
-26229.6
-28645.2
-31958.2
-37267.6
33403.9
28153.2
24956.7
22713.7
20981.7
19555.5
18327
17233.2
16233.9
15302.2
14418.8
13569.2
12742
11928.3
11120.5
10312.3
9498.03
8673.12
7833.45
6975.5
6096.29
5193.34
4264.7
3308.89
2324.94
1312.34
271.036
-798.567
-1895.66
-3019.06
-4167.26
-5338.47
-6530.75
-7742.05
-8970.38
-10213.9
-11471.3
-12741.8
-14025.7
-15325
-16643.7
-17989.6
-19375.3
-20822
-22363.8
-24059.1
-26011.7
-28423.3
-31733.7
-37041.7
33161.3
27911.4
24716.7
22476.2
20747.6
19325.6
18102
17013.7
16020.7
15096
14220
13378.5
12560
11755.5
10957.4
10159.4
9355.9
8542.29
7714.43
6868.83
6002.49
5112.96
4198.25
3256.89
2287.88
1290.7
265.271
-788.05
-1868.49
-2974.93
-4105.9
-5259.71
-6434.49
-7628.26
-8839.14
-10065.4
-11305.8
-12559.8
-13827.7
-15111.6
-16415.8
-17748.1
-19121.4
-20556.7
-22088.6
-23775.4
-25721
-28127.4
-31434.1
-36740.4
32857.3
27608.5
24416
22178.8
20454.5
19037.8
17820.5
16739.3
15754.3
14838.3
13971.8
13140.5
12332.9
11539.9
10754
9968.77
9178.78
8379.29
7566.2
6736.01
5885.74
5012.92
4115.58
3192.22
2241.83
1263.86
258.192
-774.848
-1834.55
-2919.85
-4029.37
-5161.49
-6314.43
-7486.34
-8675.45
-9880.18
-11099.4
-12332.6
-13580.5
-14845.2
-16131.2
-17446.4
-18804
-20225.1
-21744.5
-23420.6
-25357.5
-27757.2
-31059.4
-36363.4
32491.2
27243.9
24054.1
21820.9
20102
18691.9
17482.2
16409.8
15434.5
14529.1
13674.2
12855.3
12060.8
11281.8
10510.6
9740.84
8967.04
8184.5
7389.11
6577.39
5746.35
4893.53
4016.95
3115.1
2186.96
1231.93
249.882
-758.93
-1793.85
-2853.89
-3937.76
-5043.94
-6170.76
-7316.51
-8479.54
-9658.43
-10852.2
-12060.6
-13284.4
-14526
-15790.1
-17084.8
-18423.3
-19827.3
-21331.5
-22994.6
-24920.9
-27312.5
-30609.3
-35910.6
32062.4
26816.7
23630.3
21402.1
19689.6
18287.3
17086.9
16025
15061.3
14168.6
13327.5
12523.1
11744.2
10981.6
10227.7
9476
8721.14
7958.37
7183.62
6393.39
5584.72
4755.14
3902.67
3025.8
2123.48
1195.08
240.434
-740.263
-1746.42
-2777.14
-3831.22
-4907.27
-6003.73
-7119.04
-8251.72
-9400.51
-10564.6
-11744
-12939.7
-14154.2
-15392.6
-16663.2
-17979.4
-19363.2
-20849.5
-22497.3
-24411.1
-26793.1
-30083.4
-35381.4
31569.8
26326.1
23143.7
20921.3
19216.6
17823.7
16634.2
15584.6
14634.7
13756.9
12931.7
12144.4
11383.5
10639.8
9905.68
9174.77
8441.6
7701.44
6950.23
6184.51
5401.3
4598.17
3773.11
2924.63
2051.63
1153.48
229.95
-718.816
-1692.31
-2689.71
-3709.93
-4751.7
-5813.62
-6894.28
-7992.35
-9106.8
-10237.1
-11383.3
-12546.7
-13730.2
-14939
-16181.8
-17472.3
-18832.7
-20298.3
-21928.3
-23827.5
-26198.3
-29481.1
-34775.3
31012
25770.7
22593
20377.7
18682.1
17300.3
16123.6
15088.5
14154.5
13293.9
12487.1
11719.3
10978.9
10256.8
9545.2
8837.78
8129.05
7414.33
6689.58
5951.33
5196.65
4423.1
3628.7
2811.93
1971.7
1107.33
218.545
-694.56
-1631.56
-2591.73
-3574.11
-4577.54
-5600.79
-6642.61
-7701.87
-8777.76
-9869.91
-10978.7
-12105.8
-13254.2
-14429.5
-15640.7
-16901.9
-18235.6
-19677.5
-21287.1
-23169.5
-25527.5
-28801.6
-34091.4
30387.2
25148.8
21976.8
19769.8
18084.9
16716.1
15554.5
14536.2
13620.5
12779.7
11994
11248.3
10531.2
9833.26
9146.92
8465.72
7784.24
7097.78
6402.35
5694.52
4971.37
4230.49
3469.9
2688.1
1883.98
1056.83
206.335
-667.477
-1564.26
-2483.38
-3424.01
-4385.13
-5365.65
-6364.52
-7380.81
-8413.93
-9463.76
-10531
-11617.5
-12726.6
-13864.4
-15040.1
-16268.2
-17571.7
-18986.7
-20573.1
-22436.3
-24779.6
-28043.6
-33328.4
29693.1
24458.2
21292.9
19095.8
17423.7
16070.2
14926.1
13927.3
13032.7
12214.5
11452.6
10731.9
10040.8
9369.93
8711.61
8059.43
7407.98
6752.61
6089.35
5414.82
4726.15
4020.94
3297.26
2553.59
1788.82
1002.22
193.442
-637.555
-1490.5
-2364.88
-3259.95
-4174.86
-5108.69
-6060.57
-7029.78
-8015.95
-9019.25
-10040.6
-11082.3
-12147.9
-13243.9
-14380
-15571.1
-16840.6
-18225.1
-19785.1
-21626.5
-23952.9
-27205.5
-32484.5
28926.5
23695.7
20538.6
18353.4
16696.4
15361
14237.4
13261.1
12390.8
11598.3
10863.3
10170.6
9508.55
8867.62
8240.19
7619.86
7001.24
6379.76
5751.48
5113.09
4461.76
3795.15
3111.35
2408.86
1686.57
943.748
179.986
-604.801
-1410.42
-2236.46
-3082.3
-3947.24
-4830.5
-5731.42
-6649.5
-7584.6
-8537.14
-9508.39
-10500.8
-11518.6
-12568.4
-13660.5
-14810.3
-16041.6
-17391.8
-18921.8
-20738.3
-23045.4
-26284.9
-31557.1
28083.3
22857.6
19710.4
17539.4
15900.6
14586.6
13487.1
12537
11694.5
10931.2
10226.6
9565.19
8935.26
8327.32
7733.72
7148.09
6565.12
5980.29
5389.76
4790.27
4179.07
3553.88
2912.83
2254.45
1577.65
881.668
166.086
-569.239
-1324.19
-2098.44
-2891.51
-3702.81
-4531.76
-5377.86
-6240.82
-7120.75
-8018.33
-8935.12
-9873.92
-10839.3
-11838.3
-12881.6
-13985.4
-15174
-16485.4
-17981.4
-19769.3
-22054.2
-25278.4
-30542.9
27157.7
21938.3
18803.4
16650
15033.2
13744.7
12673.6
11754
10943.6
10213.5
9542.94
8916.41
8321.97
7750.18
7193.41
6645.38
6100.85
5555.41
5005.31
4447.4
3879.02
3297.95
2702.39
2090.92
1462.45
816.249
151.854
-530.916
-1232.01
-1951.19
-2688.09
-3442.26
-4213.26
-5000.78
-5804.74
-6625.46
-7463.88
-8321.84
-9202.46
-10110.7
-11054
-12043.5
-13096
-14236.6
-15504.1
-16961.1
-18716.1
-20975.1
-24181.3
-29436.6
26141.9
20930.6
17811.2
15679.7
14090
12832.5
11795.2
10911.3
10137.8
9445.46
8813.18
8225.32
7669.92
7137.56
6620.69
6113.16
5609.84
5106.46
4599.41
4085.66
3562.65
3028.28
2480.81
1918.88
1341.45
747.77
137.393
-489.906
-1134.13
-1795.14
-2472.64
-3166.33
-3875.92
-4601.25
-5342.43
-6099.98
-6875.07
-7669.81
-8487.6
-9333.7
-10216
-11146.3
-12141.7
-13228.2
-14445.6
-15857.6
-17574
-19802.3
-22987.1
-28231.4
25025.2
19824.5
16725.2
14621.7
13065.9
11846.4
10849.7
10007.8
9277.04
8627.64
8038.28
7493.25
6980.62
6491.07
6017.22
5553.06
5093.67
4634.95
4173.45
3706.31
3231.11
2745.85
2248.9
1738.98
1215.09
676.515
122.795
-446.312
-1030.86
-1630.77
-2245.86
-2875.93
-3520.81
-4180.49
-4855.24
-5545.76
-6253.42
-6980.52
-7730.72
-8509.58
-9325.33
-10190.1
-11121.9
-12147.2
-13306.9
-14666.3
-16336.8
-18528
-21686.4
-26917
23791.9
18605.6
15533.4
13466.7
11954.3
10782.2
9834.72
9042.63
8361.44
7760.9
7219.59
6721.85
6255.89
5812.62
5384.89
4966.96
4554.14
4142.55
3728.99
3310.76
2885.62
2451.72
2007.56
1551.92
1083.88
602.771
108.139
-400.272
-922.554
-1458.68
-2008.55
-2572.05
-3149.13
-3739.89
-4344.74
-4964.52
-5600.72
-6255.8
-6933.59
-7639.82
-8383
-9175.6
-10036
-10991.6
-12084.5
-13381.3
-14996
-17140.8
-20265.8
-25478.7
22419
17253.5
14219.3
12202.6
10747.1
9634.99
8747.91
8015.19
7391.56
6846.59
6358.93
5913.2
5497.94
5104.45
4725.92
4356.96
3993.22
3631.12
3267.7
2900.52
2527.53
2147.05
1757.71
1358.42
948.335
526.832
93.4868
-351.957
-809.617
-1279.51
-1761.59
-2255.83
-2762.26
-3281.08
-3812.77
-4358.26
-4919.12
-5497.88
-6098.4
-6726.48
-7390.68
-8103.64
-8884
-9759.78
-10773.9
-11995.2
-13540.1
-15625.1
-18705.5
-23894.3
20871.3
15737.5
12759.3
10813.1
9434.31
8399.44
7587.16
6925.43
6368.7
5886.75
5458.77
5069.96
4709.47
4369.19
4042.82
3725.46
3413.15
3102.69
2791.45
2477.24
2158.26
1833.04
1500.36
1159.26
808.987
448.992
78.885
-301.576
-692.52
-1093.99
-1506
-1928.55
-2361.76
-2805.86
-3261.39
-3729.29
-4211.15
-4709.42
-5227.89
-5772.2
-6350.74
-6975.94
-7666.34
-8450.05
-9370.7
-10498.6
-11953.7
-13958.2
-16975.8
-22129.4
19091.5
14010.6
11120.4
9277.71
8004.64
7070.58
6351.36
5774.54
5295.25
4884.41
4522.36
4195.41
3893.69
3609.9
3338.48
3075.11
2816.37
2559.49
2302.21
2042.68
1779.36
1510.99
1236.56
955.235
666.389
369.543
64.3624
-249.373
-571.788
-902.944
-1242.87
-1591.63
-1949.34
-2316.27
-2692.95
-3080.29
-3479.75
-3893.65
-4325.47
-4780.47
-5266.5
-5795.31
-6384.66
-7061.94
-7870.4
-8881.09
-10217
-12107.6
-15030.3
-20127.5
16980.6
11997.4
9255.09
7570.92
6446.74
5645.11
5041.5
4565.6
4175.23
3843.85
3553.96
3293.62
3054.39
2830.09
2616.1
2408.86
2205.54
2003.91
1802.13
1598.72
1392.43
1182.27
967.405
747.189
521.109
288.782
49.9316
-195.624
-447.997
-707.251
-973.431
-1246.6
-1526.89
-1814.56
-2110.09
-2414.26
-2728.35
-3054.36
-3395.3
-3755.75
-4142.57
-4566.18
-5042.6
-5597.03
-6270.41
-7131.95
-8305.23
-10026.9
-12794.6
-17790.5
14349.3
9573.21
7098.79
5665.4
4752.68
4124.11
3662.38
3304.63
3014.78
2770.89
2558.91
2369.45
2195.97
2033.74
1879.28
1729.91
1583.54
1438.51
1293.47
1147.33
999.175
848.279
694.042
535.983
373.73
207
35.5896
-140.639
-321.773
-507.868
-698.966
-895.128
-1096.47
-1303.19
-1515.68
-1734.54
-1960.79
-2195.94
-2442.37
-2703.61
-2985.09
-3295.1
-3646.66
-4060.72
-4572.48
-5244.01
-6191.93
-7652.22
-10144.8
-14930
10789.3
6529.23
4573.3
3541.88
2925.27
2517.12
2224.61
2001.48
1822.56
1673.05
1543.75
1428.58
1323.39
1225.22
1131.87
1041.7
953.412
865.984
778.591
690.562
601.346
510.495
417.645
322.503
224.843
124.49
21.3209
-84.7509
-193.781
-305.805
-420.855
-538.972
-660.232
-784.772
-912.833
-1044.81
-1181.33
-1323.38
-1472.44
-1630.79
-1801.91
-1991.19
-2207.23
-2464.23
-2786.83
-3220.82
-3858.61
-4906.22
-6873.08
-11138.7
5273.07
2549.52
1625.53
1215.46
990.3
847.085
746.425
670.44
609.884
559.484
516.01
477.362
442.11
409.242
378.014
347.864
318.356
289.144
259.951
230.55
200.757
170.421
139.419
107.654
75.0486
41.5452
7.1014
-28.3118
-64.7136
-102.117
-140.532
-179.975
-220.472
-262.07
-304.853
-348.956
-394.595
-442.106
-492
-545.061
-602.489
-666.165
-739.111
-826.401
-937.105
-1088.94
-1321.17
-1736.65
-2664.28
-5389.67
2556.91
1875.81
1418.66
1137.55
955.776
829.988
737.392
665.552
607.289
558.225
515.552
477.393
442.438
409.745
378.613
348.506
319.005
289.775
260.547
231.099
201.248
170.848
139.776
107.937
75.2532
41.6688
7.14193
-28.3557
-64.8421
-102.329
-140.825
-180.343
-220.905
-262.555
-305.367
-349.466
-395.049
-442.426
-492.065
-544.677
-601.344
-663.723
-734.412
-817.592
-920.264
-1054.71
-1243.58
-1530.1
-1990.91
-2673.86
6550.54
5177.04
4081.42
3337.13
2829.58
2468.43
2198.53
1987.27
1815
1669.39
1542.44
1428.71
1324.39
1226.73
1133.67
1043.63
955.36
867.878
780.379
692.206
602.819
511.776
418.715
323.351
225.456
124.861
21.4424
-84.8822
-194.166
-306.441
-421.732
-540.075
-661.533
-786.228
-914.378
-1046.34
-1182.7
-1324.36
-1472.67
-1629.7
-1798.59
-1984.08
-2193.59
-2438.82
-2738.91
-3125.98
-3654.8
-4415.32
-5521.92
-6900.93
9607.2
7914.48
6442.61
5373.97
4610.28
4049.56
3621.76
3282.28
3002.85
2765.15
2556.93
2369.78
2197.7
2036.3
1882.29
1733.12
1586.78
1441.66
1296.45
1150.06
1001.62
850.407
695.82
537.391
374.748
207.615
35.7903
-140.859
-322.415
-508.926
-700.427
-896.965
-1098.63
-1305.62
-1518.26
-1737.12
-1963.11
-2197.63
-2442.85
-2701.99
-2979.91
-3283.94
-3625.26
-4021.22
-4499.21
-5103.02
-5902.05
-6997.69
-8487.8
-10189.7
12043
10195.9
8507.87
7224.38
6271.48
5551.08
4989.43
4536.7
4159.79
3836.48
3551.55
3294.28
3056.93
2833.75
2620.36
2413.37
2210.09
2008.32
1806.29
1602.54
1395.85
1185.24
969.886
749.151
522.529
289.638
50.2096
-195.933
-448.896
-708.732
-975.476
-1249.17
-1529.93
-1817.97
-2113.72
-2417.9
-2731.66
-3056.84
-3396.2
-3753.86
-4136
-4551.79
-5015.01
-5546.52
-6178.15
-6958.66
-7960.83
-9281.99
-10995.5
-12855.3
14066.8
12138.3
10322.4
8897.09
7807.37
6962.71
6290.85
5740.73
5277.21
4875.95
4519.84
4196.59
3897.14
3614.69
3343.99
3080.93
2822.21
2565.15
2307.54
2047.57
1783.74
1514.79
1239.73
957.745
668.203
370.637
64.7154
-249.772
-572.942
-904.846
-1245.5
-1594.94
-1953.25
-2320.67
-2697.65
-3085.03
-3484.12
-3897.03
-4326.95
-4778.62
-5259.06
-5778.62
-6352.54
-7003.41
-7764.8
-8686.34
-9839.08
-11312.5
-13161.1
-15105.9
15803.5
13828.1
11932.5
10411.7
9222.77
8282.22
7520.8
6888.23
6348.94
5877.72
5456.45
5071.83
4713.94
4375.17
4049.63
3732.6
3420.29
3109.59
2797.93
2483.19
2163.58
1837.66
1504.22
1162.31
811.189
450.317
79.3098
-302.067
-693.93
-1096.31
-1509.2
-1932.59
-2366.53
-2811.24
-3267.17
-3735.16
-4216.62
-4713.81
-5230.13
-5770.69
-6342.96
-6957.83
-7631.18
-8386.1
-9256.23
-10290.1
-11555.6
-13134.9
-15070
-17065.3
17328.4
15323.7
13375.9
11788.6
10526.6
9511.74
8677.77
7975.86
7370.87
6837.47
6357.1
5915.94
5503.51
5111.68
4734.03
4365.42
4001.64
3639.24
3275.33
2907.51
2533.77
2152.47
1762.23
1361.99
950.915
528.383
93.9798
-352.539
-811.279
-1282.24
-1765.37
-2260.59
-2767.9
-3287.45
-3819.63
-4365.27
-4925.75
-5503.36
-6101.58
-6725.6
-7383.02
-8084.89
-8847.08
-9692.46
-10653.9
-11778.3
-13130
-14785.8
-16780
-18808.1
18688.9
16664.5
14680.5
13045.3
11728.5
10655.3
9762.36
9002.19
8340.47
7752.09
7218.48
6725.59
6262.63
5821.13
5394.32
4976.72
4563.82
4151.87
3737.73
3318.76
2892.77
2457.92
2012.73
1556
1086.83
604.539
108.696
-400.945
-924.466
-1461.82
-2012.89
-2577.52
-3155.62
-3747.25
-4352.7
-4972.69
-5608.55
-6262.47
-6937.85
-7639.81
-8375.86
-9156.84
-9998.31
-10922.5
-11961.2
-13159.5
-14579
-16292.6
-18329.6
-20380.6
19915.4
17877.1
15867
14196.2
12837
11717.6
10776.3
9967
9256.29
8619.47
8038.1
7498.12
6988.6
6500.88
6027.96
5564.12
5104.6
4645.44
4183.28
3715.3
3239.13
2752.8
2254.71
1743.56
1218.39
678.492
123.413
-447.077
-1033.02
-1634.31
-2250.75
-2882.1
-3528.14
-4188.81
-4864.27
-5555.11
-6262.48
-6988.42
-7736.17
-8510.63
-9319.04
-10171.9
-11084.2
-12077.4
-13182.2
-14442
-15916.2
-17675
-19744.5
-21812.7
21028.6
18980
16950.2
15252.1
13859.7
12702.9
11721.5
10870.7
10117.6
9438.16
8814.07
8231.39
7679.18
7148.67
6632.73
6125.48
5621.98
5118.09
4610.29
4095.61
3571.53
3035.97
2487.22
1923.94
1345.09
749.948
138.067
-490.761
-1136.53
-1799.07
-2478.07
-3173.19
-3884.08
-4610.53
-5352.53
-6110.49
-6885.37
-7678.99
-8494.31
-9335.97
-10210.8
-11128.9
-12104.6
-13158.6
-14320.5
-15632.3
-17151.7
-18947.1
-21042.4
-23124
22042.7
19986.2
17941.2
16221.5
14802.4
13615.1
12600.3
11714.1
10924.3
10207.2
9545
8923.73
8332.52
7762.59
7206.72
6658.93
6114.17
5568.14
5017.21
4458.27
3888.71
3306.34
2709.38
2096.43
1466.42
818.618
152.581
-531.86
-1234.64
-1955.5
-2694.03
-3449.77
-4222.22
-5010.98
-5815.89
-6637.12
-7475.41
-8332.31
-9210.5
-10114.2
-11050
-12027.2
-13059.8
-14167.7
-15379.3
-16735.8
-18293.5
-20119.1
-22235.7
-24328.2
22967.8
20905.1
18848.1
17111
15670.1
14457.4
13414.5
12497.9
11676.3
10926.1
10229.8
9573.78
8947.09
8341
7748.27
7162.84
6579.57
5994.08
5402.62
4802.01
4189.53
3562.93
2920.37
2260.39
1581.92
884.217
166.861
-570.27
-1327.04
-2103.11
-2897.95
-3710.96
-4541.48
-5388.95
-6252.98
-7133.53
-8031.07
-8946.87
-9883.28
-10844.2
-11835.6
-12866.6
-13950.4
-15106
-16361.5
-17756.7
-19347.2
-21198.6
-23332.9
-25434.4
23811.3
21743.6
19676.7
17925.5
16466.6
15232.6
14165.7
13223.1
12373.7
11594.4
10867.8
10180.5
9521.63
8882.53
8255.94
7635.75
7016.77
6394.55
5765.27
5125.66
4472.96
3804.83
3119.41
2415.21
1691.14
946.466
180.806
-605.915
-1413.49
-2241.47
-3089.22
-3955.99
-4840.96
-5743.37
-6662.63
-7598.46
-8551.06
-9521.4
-10511.5
-11524.9
-12567.2
-13646.8
-14776.6
-15974.9
-17269.1
-18698.3
-20317.1
-22190.7
-24340.1
-26449.5
24578.6
22506.8
20431.8
18668.7
17194.8
15942.8
14855.5
13890.5
13016.8
12211.8
11458.3
10743
10055.1
9386.02
8728.49
8076.4
7424.52
6768.34
6104
5428.17
4738.03
4031.21
3305.81
2560.32
1793.65
1005.1
194.301
-638.749
-1493.77
-2370.21
-3267.32
-4184.19
-5119.84
-6073.33
-7043.84
-8030.84
-9034.3
-10054.9
-11094.2
-12155.6
-13244
-14367.7
-15538.8
-16775.3
-18103.7
-19562.8
-21206.5
-23099.3
-25261.9
-27377.9
25273.6
23198.4
21116.6
19343.7
17857.1
16589.9
15485.1
14500.6
13605.8
12778.2
12000.9
11260.6
10546.6
9850.46
9164.86
8483.7
7801.72
7114.4
6417.81
5708.59
4983.89
4241.31
3478.91
2695.19
1889.07
1059.85
207.23
-668.747
-1567.71
-2489.03
-3431.8
-4394.99
-5377.45
-6378.04
-7395.74
-8429.79
-9479.87
-10546.4
-11630.7
-12735.5
-13865.8
-15029.2
-16237.3
-17507.8
-18866.7
-20352.1
-22017.7
-23927.3
-26101.3
-28223.1
25899.4
23821.3
21733.9
19952.7
18455.3
17175.1
16055.3
15054
14140.9
13293.5
12495.2
11732.6
10995.5
10275
9564.14
8856.7
8147.42
7431.77
6705.78
5966.08
5209.76
4434.42
3638.12
2819.34
1977.02
1110.48
219.471
-695.903
-1635.2
-2597.66
-3582.29
-4587.9
-5613.19
-6656.84
-7717.61
-8794.52
-9887.02
-10995.2
-12120.1
-13264.3
-14432.2
-15631.1
-16872.4
-18173.1
-19558.9
-21067.6
-22752.3
-24676.6
-26860.7
-28987.5
26458.3
24377.8
22285.6
20497.4
18990.9
17699.6
16567
15551.2
14622.1
13757.6
12940.8
12158.7
11401
10659
9925.52
9194.55
8460.77
7719.61
6967.12
6199.86
5414.95
4609.95
3782.91
2932.34
2057.16
1156.76
230.904
-720.226
-1696.11
-2695.89
-3718.47
-4762.52
-5826.58
-6909.16
-8008.83
-9124.4
-10255.1
-11400.7
-12562.1
-13741.5
-14942.9
-16173.4
-17444
-18771.5
-20181.1
-21710.1
-23411.6
-25348.8
-27541.6
-29672.8
26951.9
24869.4
22773.3
20979.1
19464.9
18164.3
17020.7
15992.5
15049.8
14170.3
13337.5
12538.4
11762.7
11001.7
10248.3
9496.55
8741.04
7977.21
7201.11
6409.29
5598.84
4767.34
3912.81
3033.78
2129.19
1198.46
241.409
-741.736
-1750.37
-2783.56
-3840.09
-4918.5
-6017.19
-7134.51
-8268.87
-9418.87
-10583.5
-11762.4
-12956.1
-14166.5
-15397.6
-16656
-17952.3
-19303.2
-20733.5
-22280.4
-23996.5
-25944.8
-28145.1
-30280.2
27381.7
25297.5
23198
21399
19878.3
18569.7
17416.9
16378.2
15423.9
14531.7
13685.2
12871.4
12080
11302.6
10532
9762.08
8987.58
8203.93
7407.15
6593.78
5760.9
4906.09
4027.39
3123.31
2192.84
1235.4
250.876
-760.46
-1797.93
-2860.53
-3946.91
-5055.54
-6184.67
-7332.5
-8497.29
-9677.46
-10871.8
-12079.8
-13301.7
-14539.2
-15796.1
-17078.6
-18397.3
-19768.4
-21216.6
-22778.9
-24507.5
-26465.4
-28672.2
-30810.5
27748.5
25662.9
23560.7
21757.6
20231.6
18916.5
17756
16708.6
15744.4
14841.6
13983.5
13157.3
12352.8
11561.4
10776
9990.61
9199.88
8399.24
7584.7
6752.82
5900.66
5025.8
4126.28
3200.63
2247.85
1267.4
259.2
-776.43
-1838.75
-2926.67
-4038.77
-5173.41
-6328.72
-7502.79
-8693.72
-9899.79
-11119.6
-12352.5
-13598.5
-14859.2
-16138.1
-17441.2
-18778.9
-20167.2
-21630.6
-23205.8
-24945
-26911.1
-29123.4
-31264.4
28053.3
25966.6