/*--------------------------------*- C++ -*----------------------------------*\
| =========                 |                                                 |
| \\      /  F ield         | OpenFOAM: The Open Source CFD Toolbox           |
|  \\    /   O peration     | Version:  5.x                                   |
|   \\  /    A nd           | Web:      www.OpenFOAM.org                      |
|    \\/     M anipulation  |                                                 |
\*---------------------------------------------------------------------------*/
FoamFile
{
    version     2.0;
    format      ascii;
    class       volScalarField;
    location    "1.6";
    object      gradTz;
}
// * * * * * * * * * * * * * * * * * * * * * * * * * * * * * * * * * * * * * //

dimensions      [0 -1 0 1 0 0 0];

internalField   nonuniform List<scalar> 
25000
(
-6333.98
-6850.64
-7000.04
-7052.62
-7074.29
-7084.17
-7088.84
-7090.95
-7091.7
-7091.7
-7091.27
-7090.6
-7089.8
-7088.94
-7088.07
-7087.2
-7086.37
-7085.59
-7084.87
-7084.22
-7083.63
-7083.12
-7082.69
-7082.35
-7082.09
-7081.93
-7081.85
-7081.88
-7081.99
-7082.21
-7082.53
-7082.94
-7083.45
-7084.05
-7084.74
-7085.5
-7086.31
-7087.15
-7087.97
-7088.71
-7089.24
-7089.38
-7088.8
-7086.9
-7082.48
-7072.87
-7051.5
-6999.22
-6850.14
-6333.82
-6850.64
-7840.06
-8183.22
-8318.2
-8377.3
-8405.07
-8418.4
-8424.45
-8426.58
-8426.51
-8425.19
-8423.16
-8420.75
-8418.16
-8415.53
-8412.95
-8410.46
-8408.13
-8405.96
-8403.99
-8402.24
-8400.72
-8399.43
-8398.4
-8397.63
-8397.13
-8396.91
-8396.98
-8397.33
-8397.98
-8398.93
-8400.17
-8401.69
-8403.5
-8405.55
-8407.83
-8410.28
-8412.8
-8415.27
-8417.49
-8419.12
-8419.61
-8418.01
-8412.6
-8400
-8373.04
-8314.81
-8180.76
-7838.58
-6850.14
-7000.04
-8183.23
-8630
-8818.05
-8904.37
-8946.15
-8966.5
-8975.73
-8978.87
-8978.56
-8976.26
-8972.83
-8968.79
-8964.47
-8960.09
-8955.78
-8951.65
-8947.76
-8944.16
-8940.89
-8937.98
-8935.45
-8933.31
-8931.6
-8930.32
-8929.49
-8929.12
-8929.23
-8929.82
-8930.9
-8932.47
-8934.53
-8937.07
-8940.07
-8943.49
-8947.28
-8951.35
-8955.57
-8959.71
-8963.45
-8966.27
-8967.29
-8965.03
-8956.86
-8937.72
-8897.29
-8812.42
-8625.92
-8180.75
-6999.22
-7052.64
-8318.23
-8818.08
-9037.6
-9141.84
-9193.45
-9218.86
-9230.33
-9234
-9233.18
-9229.77
-9224.86
-9219.17
-9213.11
-9206.98
-9200.96
-9195.19
-9189.77
-9184.75
-9180.19
-9176.13
-9172.59
-9169.62
-9167.23
-9165.45
-9164.29
-9163.78
-9163.92
-9164.74
-9166.25
-9168.44
-9171.31
-9174.85
-9179.04
-9183.82
-9189.12
-9194.81
-9200.73
-9206.57
-9211.91
-9216.04
-9217.84
-9215.41
-9205.42
-9181.69
-9131.95
-9029.75
-8812.38
-8314.77
-7051.48
-7074.32
-8377.37
-8904.47
-9141.91
-9257.16
-9315.08
-9343.73
-9356.45
-9360.13
-9358.54
-9353.86
-9347.42
-9340.03
-9332.22
-9324.35
-9316.64
-9309.25
-9302.31
-9295.89
-9290.06
-9284.86
-9280.34
-9276.54
-9273.48
-9271.2
-9269.72
-9269.07
-9269.25
-9270.3
-9272.22
-9275.02
-9278.7
-9283.23
-9288.59
-9294.71
-9301.5
-9308.82
-9316.44
-9324.02
-9331.01
-9336.61
-9339.46
-9337.37
-9326.53
-9300.04
-9244.52
-9131.86
-8897.17
-8372.95
-7072.84
-7084.21
-8405.21
-8946.34
-9193.65
-9315.22
-9376.78
-9407.16
-9420.29
-9423.49
-9420.86
-9414.78
-9406.72
-9397.62
-9388.07
-9378.46
-9369.08
-9360.1
-9351.66
-9343.87
-9336.78
-9330.48
-9324.99
-9320.38
-9316.67
-9313.9
-9312.1
-9311.3
-9311.53
-9312.8
-9315.13
-9318.53
-9322.99
-9328.49
-9335
-9342.45
-9350.72
-9359.65
-9368.98
-9378.31
-9387.04
-9394.23
-9398.4
-9397.12
-9386.28
-9358.52
-9299.87
-9181.45
-8937.49
-8399.85
-7082.42
-7088.92
-8418.63
-8966.84
-9219.26
-9344.1
-9407.4
-9438.35
-9451.2
-9453.53
-9449.63
-9442.03
-9432.31
-9421.47
-9410.18
-9398.86
-9387.83
-9377.29
-9367.39
-9358.25
-9349.94
-9342.55
-9336.12
-9330.71
-9326.37
-9323.12
-9321.01
-9320.07
-9320.34
-9321.83
-9324.56
-9328.54
-9333.77
-9340.22
-9347.86
-9356.61
-9366.34
-9376.86
-9387.89
-9398.99
-9409.5
-9418.4
-9424.1
-9424.03
-9413.86
-9385.99
-9326.1
-9204.95
-8956.45
-8412.34
-7086.81
-7091.07
-8424.8
-8976.27
-9230.99
-9357.14
-9420.89
-9451.58
-9463.64
-9464.79
-9459.44
-9450.23
-9438.8
-9426.24
-9413.22
-9400.22
-9387.58
-9375.51
-9364.19
-9353.74
-9344.25
-9335.8
-9328.45
-9322.27
-9317.3
-9313.59
-9311.18
-9310.11
-9310.41
-9312.11
-9315.22
-9319.77
-9325.75
-9333.13
-9341.87
-9351.88
-9363.03
-9375.12
-9387.84
-9400.71
-9413.04
-9423.74
-9431.14
-9432.58
-9423.59
-9396.41
-9336.56
-9214.63
-8964.4
-8417.61
-7088.66
-7091.88
-8427.08
-8979.67
-9235
-9361.24
-9424.58
-9454.44
-9465.34
-9465.09
-9458.17
-9447.29
-9434.16
-9419.87
-9405.15
-9390.52
-9376.31
-9362.76
-9350.06
-9338.34
-9327.7
-9318.22
-9309.99
-9303.06
-9297.49
-9293.33
-9290.63
-9289.42
-9289.76
-9291.66
-9295.15
-9300.25
-9306.95
-9315.22
-9325.03
-9336.27
-9348.81
-9362.43
-9376.81
-9391.43
-9405.58
-9418.14
-9427.36
-9430.51
-9423.05
-9397.13
-9338.16
-9216.66
-8966.36
-8419.02
-7089.18
-7091.94
-8427.21
-8979.67
-9234.62
-9360.18
-9422.57
-9451.23
-9460.73
-9458.93
-9450.38
-9437.81
-9422.96
-9406.98
-9390.62
-9374.39
-9358.66
-9343.69
-9329.66
-9316.71
-9304.97
-9294.51
-9285.43
-9277.78
-9271.63
-9267.03
-9264.05
-9262.72
-9263.08
-9265.18
-9269.03
-9274.65
-9282.04
-9291.18
-9302.01
-9314.45
-9328.33
-9343.44
-9359.43
-9375.78
-9391.74
-9406.16
-9417.26
-9422.25
-9416.56
-9392.25
-9334.7
-9214.37
-8964.97
-8418.31
-7088.96
-7091.59
-8426.13
-8977.75
-9231.73
-9356.16
-9417.25
-9444.48
-9452.45
-9449.04
-9438.82
-9424.56
-9408.05
-9390.42
-9372.46
-9354.7
-9337.51
-9321.17
-9305.86
-9291.75
-9278.94
-9267.55
-9257.65
-9249.31
-9242.61
-9237.6
-9234.34
-9232.89
-9233.28
-9235.56
-9239.76
-9245.88
-9253.94
-9263.9
-9275.71
-9289.29
-9304.46
-9321
-9338.55
-9356.59
-9374.32
-9390.59
-9403.59
-9410.49
-9406.67
-9384.19
-9328.36
-9209.64
-8961.72
-8416.41
-7088.34
-7091.01
-8424.37
-8974.77
-9227.44
-9350.48
-9410.11
-9435.8
-9442.16
-9437.11
-9425.24
-9409.34
-9391.2
-9371.99
-9352.5
-9333.27
-9314.69
-9297.04
-9280.52
-9265.3
-9251.49
-9239.2
-9228.52
-9219.53
-9212.3
-9206.89
-9203.38
-9201.81
-9202.23
-9204.68
-9209.2
-9215.8
-9224.49
-9235.24
-9247.99
-9262.64
-9279.05
-9296.96
-9316.01
-9335.66
-9355.12
-9373.19
-9388.06
-9396.87
-9394.99
-9374.42
-9320.48
-9203.6
-8957.46
-8413.88
-7087.5
-7090.32
-8422.27
-8971.24
-9222.45
-9343.98
-9402.06
-9426.17
-9430.93
-9424.27
-9410.78
-9393.29
-9373.59
-9352.87
-9331.92
-9311.31
-9291.41
-9272.53
-9254.86
-9238.59
-9223.83
-9210.69
-9199.28
-9189.67
-9181.94
-9176.17
-9172.41
-9170.73
-9171.17
-9173.79
-9178.61
-9185.66
-9194.94
-9206.43
-9220.06
-9235.75
-9253.32
-9272.53
-9293
-9314.2
-9335.31
-9355.12
-9371.8
-9382.49
-9382.52
-9363.9
-9311.9
-9196.95
-8952.74
-8411.06
-7086.56
-7089.57
-8420.04
-8967.51
-9217.19
-9337.19
-9393.71
-9416.25
-9419.45
-9411.23
-9396.2
-9377.2
-9356.02
-9333.87
-9311.55
-9289.63
-9268.5
-9248.46
-9229.72
-9212.46
-9196.81
-9182.88
-9170.78
-9160.59
-9152.4
-9146.27
-9142.29
-9140.5
-9140.96
-9143.73
-9148.84
-9156.31
-9166.15
-9178.33
-9192.79
-9209.44
-9228.1
-9248.53
-9270.35
-9293
-9315.67
-9337.14
-9355.56
-9368.05
-9369.94
-9353.22
-9303.15
-9190.14
-8947.87
-8408.14
-7085.59
-7088.83
-8417.79
-8963.77
-9211.95
-9330.44
-9385.45
-9406.49
-9408.18
-9398.48
-9382
-9361.58
-9339.02
-9315.54
-9291.94
-9268.8
-9246.52
-9225.4
-9205.67
-9187.49
-9171.01
-9156.35
-9143.61
-9132.88
-9124.26
-9117.8
-9113.6
-9111.71
-9112.2
-9115.11
-9120.49
-9128.35
-9138.7
-9151.52
-9166.75
-9184.29
-9203.97
-9225.54
-9248.61
-9272.62
-9296.75
-9319.77
-9339.83
-9354.03
-9357.69
-9342.79
-9294.57
-9183.44
-8943.08
-8405.26
-7084.63
-7088.11
-8415.63
-8960.16
-9206.91
-9323.96
-9377.54
-9397.16
-9397.45
-9386.37
-9368.54
-9346.79
-9322.96
-9298.24
-9273.47
-9249.21
-9225.87
-9203.76
-9183.11
-9164.09
-9146.85
-9131.51
-9118.18
-9106.96
-9097.93
-9091.18
-9086.78
-9084.8
-9085.3
-9088.34
-9093.96
-9102.18
-9113
-9126.41
-9142.35
-9160.71
-9181.33
-9203.94
-9228.17
-9253.44
-9278.92
-9303.38
-9324.96
-9340.76
-9346.08
-9332.87
-9286.41
-9177.06
-8938.5
-8402.51
-7083.71
-7087.43
-8413.61
-8956.79
-9202.19
-9317.91
-9370.17
-9388.47
-9387.47
-9375.12
-9356.05
-9333.1
-9308.1
-9282.26
-9256.41
-9231.13
-9206.83
-9183.81
-9162.33
-9142.54
-9124.61
-9108.65
-9094.79
-9083.12
-9073.73
-9066.7
-9062.12
-9060.06
-9060.58
-9063.73
-9069.57
-9078.11
-9089.37
-9103.31
-9119.89
-9139
-9160.47
-9184.04
-9209.31
-9235.73
-9262.45
-9288.23
-9311.2
-9328.46
-9335.3
-9323.67
-9278.82
-9171.13
-8934.24
-8399.95
-7082.86
-7086.81
-8411.76
-8953.71
-9197.88
-9312.38
-9363.44
-9380.55
-9378.38
-9364.89
-9344.7
-9320.66
-9294.61
-9267.77
-9240.95
-9214.75
-9189.59
-9165.77
-9143.53
-9123.06
-9104.5
-9088
-9073.65
-9061.58
-9051.86
-9044.59
-9039.84
-9037.71
-9038.24
-9041.5
-9047.53
-9056.36
-9068
-9082.43
-9099.59
-9119.37
-9141.6
-9166.02
-9192.24
-9219.68
-9247.51
-9274.48
-9298.71
-9317.28
-9325.5
-9315.29
-9271.91
-9165.72
-8930.36
-8397.61
-7082.08
-7086.26
-8410.1
-8950.96
-9194.04
-9307.46
-9357.44
-9373.5
-9370.29
-9355.78
-9334.6
-9309.61
-9282.63
-9254.9
-9227.23
-9200.22
-9174.3
-9149.76
-9126.86
-9105.79
-9086.68
-9069.69
-9054.92
-9042.49
-9032.48
-9024.99
-9020.11
-9017.9
-9018.45
-9021.8
-9028
-9037.09
-9049.07
-9063.92
-9081.58
-9101.95
-9124.86
-9150.04
-9177.09
-9205.44
-9234.25
-9262.26
-9287.6
-9307.35
-9316.78
-9307.84
-9265.76
-9160.9
-8926.91
-8395.53
-7081.38
-7085.78
-8408.66
-8948.56
-9190.7
-9303.17
-9352.23
-9367.37
-9363.27
-9347.88
-9325.85
-9300.03
-9272.25
-9243.74
-9215.34
-9187.64
-9161.06
-9135.91
-9112.44
-9090.84
-9071.26
-9053.85
-9038.72
-9025.97
-9015.72
-9008.04
-9003.03
-9000.77
-9001.32
-9004.75
-9011.1
-9020.41
-9032.68
-9047.89
-9066
-9086.88
-9110.37
-9136.19
-9163.96
-9193.1
-9222.75
-9251.67
-9277.97
-9298.73
-9309.22
-9301.37
-9260.42
-9156.72
-8923.9
-8393.72
-7080.78
-7085.38
-8407.45
-8946.55
-9187.88
-9299.57
-9347.84
-9362.22
-9357.37
-9341.24
-9318.49
-9291.97
-9263.53
-9234.37
-9205.36
-9177.07
-9149.94
-9124.27
-9100.32
-9078.28
-9058.31
-9040.55
-9025.11
-9012.11
-9001.64
-8993.81
-8988.69
-8986.38
-8986.94
-8990.43
-8996.91
-9006.4
-9018.92
-9034.44
-9052.91
-9074.22
-9098.19
-9124.56
-9152.94
-9182.73
-9213.09
-9242.77
-9269.88
-9291.48
-9302.86
-9295.93
-9255.93
-9153.2
-8921.38
-8392.2
-7080.27
-7085.05
-8406.48
-8944.92
-9185.62
-9296.67
-9344.31
-9358.07
-9352.61
-9335.89
-9312.57
-9285.49
-9256.5
-9226.83
-9197.32
-9168.57
-9140.99
-9114.91
-9090.58
-9068.19
-9047.9
-9029.85
-9014.16
-9000.95
-8990.32
-8982.36
-8977.16
-8974.81
-8975.37
-8978.92
-8985.5
-8995.14
-9007.85
-9023.61
-9042.38
-9064.03
-9088.4
-9115.21
-9144.06
-9174.38
-9205.32
-9235.61
-9263.36
-9285.65
-9297.74
-9291.55
-9252.32
-9150.37
-8919.34
-8390.98
-7079.86
-7084.81
-8405.74
-8943.7
-9183.91
-9294.48
-9341.65
-9354.95
-9349.03
-9331.86
-9308.1
-9280.6
-9251.21
-9221.15
-9191.27
-9162.16
-9134.25
-9107.86
-9083.24
-9060.58
-9040.05
-9021.79
-9005.92
-8992.55
-8981.79
-8973.74
-8968.48
-8966.1
-8966.66
-8970.25
-8976.9
-8986.65
-8999.51
-9015.46
-9034.45
-9056.36
-9081.02
-9108.16
-9137.38
-9168.1
-9199.46
-9230.21
-9258.45
-9281.25
-9293.88
-9288.25
-9249.59
-9148.23
-8917.81
-8390.05
-7079.56
-7084.64
-8405.25
-8942.88
-9182.77
-9293.02
-9339.87
-9352.85
-9346.63
-9329.17
-9305.12
-9277.34
-9247.68
-9217.36
-9187.23
-9157.88
-9129.75
-9103.15
-9078.34
-9055.5
-9034.81
-9016.41
-9000.41
-8986.94
-8976.1
-8967.98
-8962.67
-8960.27
-8960.84
-8964.46
-8971.16
-8980.98
-8993.94
-9010.01
-9029.15
-9051.23
-9076.08
-9103.44
-9132.91
-9163.89
-9195.55
-9226.6
-9255.17
-9278.31
-9291.3
-9286.04
-9247.77
-9146.8
-8916.78
-8389.43
-7079.35
-7084.56
-8405
-8942.47
-9182.19
-9292.28
-9338.98
-9351.81
-9345.43
-9327.82
-9303.62
-9275.7
-9245.91
-9215.46
-9185.2
-9155.74
-9127.49
-9100.79
-9075.88
-9052.96
-9032.19
-9013.71
-8997.65
-8984.13
-8973.24
-8965.09
-8959.77
-8957.35
-8957.93
-8961.55
-8968.28
-8978.14
-8991.15
-9007.29
-9026.49
-9048.66
-9073.61
-9101.09
-9130.67
-9161.79
-9193.58
-9224.79
-9253.53
-9276.84
-9290
-9284.94
-9246.85
-9146.09
-8916.27
-8389.12
-7079.25
-7084.56
-8405
-8942.47
-9182.19
-9292.28
-9338.98
-9351.81
-9345.43
-9327.82
-9303.62
-9275.7
-9245.91
-9215.46
-9185.2
-9155.74
-9127.49
-9100.79
-9075.88
-9052.96
-9032.19
-9013.71
-8997.65
-8984.13
-8973.24
-8965.09
-8959.77
-8957.36
-8957.93
-8961.55
-8968.28
-8978.14
-8991.15
-9007.29
-9026.49
-9048.66
-9073.62
-9101.09
-9130.67
-9161.79
-9193.59
-9224.8
-9253.53
-9276.84
-9290
-9284.94
-9246.85
-9146.09
-8916.27
-8389.12
-7079.25
-7084.64
-8405.25
-8942.88
-9182.77
-9293.02
-9339.87
-9352.85
-9346.63
-9329.17
-9305.12
-9277.34
-9247.68
-9217.36
-9187.23
-9157.88
-9129.75
-9103.15
-9078.34
-9055.5
-9034.81
-9016.41
-9000.41
-8986.94
-8976.1
-8967.98
-8962.68
-8960.27
-8960.85
-8964.46
-8971.16
-8980.99
-8993.94
-9010.02
-9029.15
-9051.23
-9076.09
-9103.45
-9132.91
-9163.9
-9195.55
-9226.61
-9255.17
-9278.32
-9291.3
-9286.05
-9247.77
-9146.81
-8916.78
-8389.43
-7079.35
-7084.81
-8405.74
-8943.7
-9183.91
-9294.48
-9341.65
-9354.94
-9349.03
-9331.86
-9308.1
-9280.61
-9251.21
-9221.16
-9191.27
-9162.16
-9134.25
-9107.86
-9083.24
-9060.59
-9040.06
-9021.8
-9005.92
-8992.56
-8981.8
-8973.74
-8968.48
-8966.1
-8966.67
-8970.26
-8976.91
-8986.66
-8999.52
-9015.47
-9034.45
-9056.36
-9081.02
-9108.16
-9137.39
-9168.1
-9199.47
-9230.22
-9258.46
-9281.26
-9293.88
-9288.26
-9249.59
-9148.24
-8917.81
-8390.05
-7079.56
-7085.05
-8406.48
-8944.92
-9185.62
-9296.67
-9344.31
-9358.07
-9352.61
-9335.89
-9312.57
-9285.49
-9256.5
-9226.84
-9197.33
-9168.57
-9140.99
-9114.91
-9090.58
-9068.19
-9047.9
-9029.85
-9014.17
-9000.96
-8990.32
-8982.36
-8977.17
-8974.82
-8975.38
-8978.93
-8985.51
-8995.15
-9007.86
-9023.62
-9042.39
-9064.04
-9088.41
-9115.22
-9144.07
-9174.39
-9205.33
-9235.62
-9263.37
-9285.66
-9297.74
-9291.56
-9252.32
-9150.37
-8919.34
-8390.98
-7079.86
-7085.38
-8407.45
-8946.55
-9187.88
-9299.57
-9347.84
-9362.22
-9357.37
-9341.24
-9318.49
-9291.97
-9263.53
-9234.38
-9205.36
-9177.07
-9149.94
-9124.28
-9100.33
-9078.29
-9058.32
-9040.55
-9025.11
-9012.11
-9001.65
-8993.81
-8988.7
-8986.39
-8986.95
-8990.44
-8996.92
-9006.41
-9018.93
-9034.45
-9052.92
-9074.23
-9098.2
-9124.58
-9152.95
-9182.74
-9213.11
-9242.79
-9269.89
-9291.5
-9302.87
-9295.94
-9255.94
-9153.21
-8921.38
-8392.2
-7080.27
-7085.78
-8408.66
-8948.56
-9190.7
-9303.17
-9352.23
-9367.37
-9363.27
-9347.89
-9325.85
-9300.03
-9272.25
-9243.75
-9215.35
-9187.64
-9161.06
-9135.91
-9112.44
-9090.84
-9071.27
-9053.85
-9038.72
-9025.98
-9015.72
-9008.05
-9003.04
-9000.78
-9001.33
-9004.76
-9011.11
-9020.42
-9032.69
-9047.91
-9066.01
-9086.89
-9110.38
-9136.21
-9163.98
-9193.12
-9222.77
-9251.69
-9277.99
-9298.74
-9309.23
-9301.39
-9260.43
-9156.73
-8923.91
-8393.73
-7080.78
-7086.26
-8410.1
-8950.95
-9194.04
-9307.46
-9357.44
-9373.5
-9370.29
-9355.78
-9334.61
-9309.61
-9282.64
-9254.9
-9227.23
-9200.23
-9174.3
-9149.77
-9126.87
-9105.79
-9086.69
-9069.7
-9054.93
-9042.5
-9032.49
-9025.01
-9020.12
-9017.92
-9018.46
-9021.81
-9028.02
-9037.1
-9049.08
-9063.93
-9081.6
-9101.97
-9124.88
-9150.06
-9177.11
-9205.46
-9234.27
-9262.28
-9287.62
-9307.37
-9316.8
-9307.86
-9265.77
-9160.91
-8926.91
-8395.53
-7081.39
-7086.81
-8411.76
-8953.71
-9197.88
-9312.38
-9363.44
-9380.55
-9378.38
-9364.89
-9344.7
-9320.66
-9294.61
-9267.77
-9240.95
-9214.76
-9189.59
-9165.77
-9143.54
-9123.06
-9104.51
-9088.01
-9073.66
-9061.59
-9051.87
-9044.6
-9039.86
-9037.72
-9038.25
-9041.51
-9047.55
-9056.38
-9068.02
-9082.45
-9099.61
-9119.39
-9141.62
-9166.04
-9192.26
-9219.7
-9247.53
-9274.5
-9298.73
-9317.3
-9325.51
-9315.31
-9271.93
-9165.73
-8930.37
-8397.62
-7082.08
-7087.43
-8413.61
-8956.79
-9202.19
-9317.91
-9370.16
-9388.47
-9387.47
-9375.12
-9356.05
-9333.1
-9308.1
-9282.26
-9256.41
-9231.13
-9206.83
-9183.82
-9162.33
-9142.55
-9124.62
-9108.66
-9094.8
-9083.13
-9073.74
-9066.72
-9062.14
-9060.07
-9060.59
-9063.75
-9069.59
-9078.13
-9089.39
-9103.33
-9119.92
-9139.03
-9160.5
-9184.06
-9209.34
-9235.75
-9262.47
-9288.25
-9311.22
-9328.48
-9335.31
-9323.69
-9278.83
-9171.14
-8934.25
-8399.95
-7082.86
-7088.11
-8415.63
-8960.16
-9206.91
-9323.96
-9377.54
-9397.16
-9397.45
-9386.37
-9368.54
-9346.8
-9322.96
-9298.25
-9273.47
-9249.21
-9225.88
-9203.77
-9183.11
-9164.09
-9146.86
-9131.52
-9118.19
-9106.97
-9097.95
-9091.2
-9086.8
-9084.82
-9085.32
-9088.36
-9093.98
-9102.2
-9113.03
-9126.44
-9142.38
-9160.74
-9181.36
-9203.97
-9228.19
-9253.46
-9278.94
-9303.41
-9324.99
-9340.78
-9346.1
-9332.89
-9286.43
-9177.08
-8938.51
-8402.51
-7083.71
-7088.83
-8417.79
-8963.76
-9211.95
-9330.44
-9385.45
-9406.49
-9408.18
-9398.48
-9382
-9361.58
-9339.02
-9315.54
-9291.94
-9268.8
-9246.53
-9225.41
-9205.67
-9187.5
-9171.02
-9156.36
-9143.62
-9132.9
-9124.27
-9117.82
-9113.62
-9111.73
-9112.22
-9115.13
-9120.51
-9128.37
-9138.72
-9151.54
-9166.78
-9184.32
-9204
-9225.56
-9248.63
-9272.64
-9296.77
-9319.8
-9339.85
-9354.06
-9357.72
-9342.81
-9294.59
-9183.46
-8943.09
-8405.26
-7084.63
-7089.57
-8420.03
-8967.5
-9217.19
-9337.19
-9393.71
-9416.25
-9419.45
-9411.23
-9396.2
-9377.2
-9356.03
-9333.88
-9311.56
-9289.64
-9268.51
-9248.47
-9229.73
-9212.47
-9196.82
-9182.89
-9170.79
-9160.61
-9152.42
-9146.29
-9142.3
-9140.52
-9140.99
-9143.76
-9148.87
-9156.34
-9166.18
-9178.35
-9192.82
-9209.47
-9228.13
-9248.56
-9270.38
-9293.03
-9315.7
-9337.16
-9355.58
-9368.08
-9369.97
-9353.24
-9303.17
-9190.15
-8947.88
-8408.14
-7085.59
-7090.32
-8422.27
-8971.24
-9222.45
-9343.98
-9402.06
-9426.17
-9430.93
-9424.27
-9410.78
-9393.3
-9373.6
-9352.87
-9331.93
-9311.31
-9291.42
-9272.54
-9254.87
-9238.6
-9223.84
-9210.71
-9199.29
-9189.69
-9181.96
-9176.19
-9172.43
-9170.75
-9171.19
-9173.81
-9178.64
-9185.69
-9194.97
-9206.46
-9220.09
-9235.78
-9253.35
-9272.56
-9293.03
-9314.23
-9335.34
-9355.15
-9371.83
-9382.52
-9382.55
-9363.92
-9311.92
-9196.97
-8952.75
-8411.06
-7086.57
-7091.01
-8424.37
-8974.77
-9227.44
-9350.48
-9410.11
-9435.8
-9442.16
-9437.11
-9425.24
-9409.34
-9391.2
-9371.99
-9352.5
-9333.27
-9314.7
-9297.05
-9280.53
-9265.31
-9251.5
-9239.21
-9228.53
-9219.54
-9212.31
-9206.91
-9203.4
-9201.83
-9202.25
-9204.71
-9209.23
-9215.83
-9224.52
-9235.27
-9248.02
-9262.68
-9279.08
-9296.99
-9316.04
-9335.69
-9355.15
-9373.22
-9388.09
-9396.9
-9395.01
-9374.45
-9320.51
-9203.62
-8957.48
-8413.89
-7087.51
-7091.59
-8426.12
-8977.75
-9231.72
-9356.16
-9417.25
-9444.48
-9452.45
-9449.04
-9438.82
-9424.57
-9408.05
-9390.42
-9372.47
-9354.71
-9337.52
-9321.18
-9305.87
-9291.76
-9278.96
-9267.56
-9257.66
-9249.33
-9242.62
-9237.62
-9234.36
-9232.91
-9233.31
-9235.59
-9239.78
-9245.91
-9253.97
-9263.93
-9275.75
-9289.32
-9304.49
-9321.03
-9338.58
-9356.62
-9374.36
-9390.62
-9403.62
-9410.51
-9406.7
-9384.21
-9328.38
-9209.65
-8961.73
-8416.42
-7088.34
-7091.94
-8427.21
-8979.67
-9234.62
-9360.18
-9422.57
-9451.23
-9460.73
-9458.94
-9450.38
-9437.81
-9422.97
-9406.99
-9390.62
-9374.4
-9358.67
-9343.7
-9329.67
-9316.72
-9304.98
-9294.52
-9285.44
-9277.79
-9271.65
-9267.05
-9264.07
-9262.74
-9263.11
-9265.2
-9269.06
-9274.68
-9282.07
-9291.21
-9302.05
-9314.48
-9328.36
-9343.47
-9359.46
-9375.81
-9391.78
-9406.19
-9417.29
-9422.28
-9416.58
-9392.28
-9334.72
-9214.38
-8964.99
-8418.31
-7088.96
-7091.88
-8427.08
-8979.67
-9235
-9361.24
-9424.58
-9454.44
-9465.34
-9465.09
-9458.17
-9447.29
-9434.16
-9419.87
-9405.16
-9390.53
-9376.31
-9362.77
-9350.07
-9338.35
-9327.71
-9318.24
-9310.01
-9303.08
-9297.51
-9293.35
-9290.65
-9289.45
-9289.78
-9291.68
-9295.18
-9300.28
-9306.98
-9315.25
-9325.06
-9336.3
-9348.85
-9362.47
-9376.84
-9391.47
-9405.62
-9418.17
-9427.39
-9430.54
-9423.08
-9397.16
-9338.19
-9216.68
-8966.37
-8419.03
-7089.18
-7091.07
-8424.8
-8976.27
-9230.98
-9357.14
-9420.89
-9451.58
-9463.64
-9464.79
-9459.44
-9450.23
-9438.81
-9426.24
-9413.22
-9400.23
-9387.59
-9375.52
-9364.2
-9353.75
-9344.26
-9335.81
-9328.47
-9322.29
-9317.32
-9313.61
-9311.2
-9310.13
-9310.43
-9312.13
-9315.25
-9319.8
-9325.78
-9333.16
-9341.9
-9351.91
-9363.07
-9375.16
-9387.87
-9400.74
-9413.07
-9423.77
-9431.17
-9432.61
-9423.62
-9396.44
-9336.59
-9214.65
-8964.41
-8417.61
-7088.66
-7088.92
-8418.63
-8966.83
-9219.25
-9344.09
-9407.4
-9438.35
-9451.2
-9453.53
-9449.63
-9442.03
-9432.31
-9421.47
-9410.18
-9398.87
-9387.84
-9377.3
-9367.4
-9358.26
-9349.95
-9342.56
-9336.14
-9330.73
-9326.38
-9323.13
-9321.03
-9320.09
-9320.36
-9321.85
-9324.58
-9328.56
-9333.79
-9340.25
-9347.89
-9356.63
-9366.36
-9376.89
-9387.92
-9399.02
-9409.53
-9418.43
-9424.13
-9424.06
-9413.89
-9386.01
-9326.12
-9204.97
-8956.47
-8412.35
-7086.81
-7084.21
-8405.21
-8946.34
-9193.65
-9315.22
-9376.78
-9407.15
-9420.29
-9423.49
-9420.86
-9414.78
-9406.72
-9397.62
-9388.07
-9378.47
-9369.08
-9360.1
-9351.67
-9343.87
-9336.79
-9330.48
-9325
-9320.39
-9316.68
-9313.91
-9312.11
-9311.32
-9311.55
-9312.82
-9315.15
-9318.55
-9323.01
-9328.52
-9335.03
-9342.47
-9350.75
-9359.68
-9369.01
-9378.34
-9387.06
-9394.25
-9398.42
-9397.14
-9386.3
-9358.55
-9299.89
-9181.47
-8937.5
-8399.85
-7082.42
-7074.32
-8377.37
-8904.46
-9141.91
-9257.16
-9315.07
-9343.72
-9356.45
-9360.13
-9358.54
-9353.86
-9347.41
-9340.03
-9332.22
-9324.35
-9316.64
-9309.25
-9302.31
-9295.89
-9290.06
-9284.86
-9280.35
-9276.55
-9273.49
-9271.21
-9269.73
-9269.08
-9269.26
-9270.31
-9272.24
-9275.04
-9278.71
-9283.25
-9288.6
-9294.73
-9301.52
-9308.84
-9316.46
-9324.04
-9331.04
-9336.63
-9339.48
-9337.39
-9326.55
-9300.06
-9244.53
-9131.88
-8897.18
-8372.96
-7072.84
-7052.64
-8318.23
-8818.08
-9037.6
-9141.83
-9193.44
-9218.86
-9230.32
-9233.99
-9233.18
-9229.76
-9224.86
-9219.16
-9213.1
-9206.97
-9200.96
-9195.19
-9189.77
-9184.75
-9180.19
-9176.13
-9172.59
-9169.62
-9167.23
-9165.45
-9164.29
-9163.78
-9163.93
-9164.75
-9166.25
-9168.44
-9171.32
-9174.86
-9179.05
-9183.83
-9189.13
-9194.83
-9200.74
-9206.59
-9211.92
-9216.05
-9217.85
-9215.42
-9205.43
-9181.71
-9131.97
-9029.76
-8812.39
-8314.78
-7051.48
-7000.04
-8183.23
-8630
-8818.05
-8904.37
-8946.15
-8966.49
-8975.73
-8978.87
-8978.56
-8976.26
-8972.82
-8968.78
-8964.47
-8960.08
-8955.78
-8951.65
-8947.76
-8944.16
-8940.89
-8937.98
-8935.44
-8933.31
-8931.6
-8930.32
-8929.49
-8929.12
-8929.23
-8929.82
-8930.9
-8932.47
-8934.53
-8937.07
-8940.07
-8943.49
-8947.29
-8951.36
-8955.57
-8959.72
-8963.46
-8966.28
-8967.3
-8965.04
-8956.86
-8937.73
-8897.29
-8812.43
-8625.92
-8180.75
-6999.22
-6850.64
-7840.06
-8183.22
-8318.2
-8377.3
-8405.07
-8418.4
-8424.45
-8426.58
-8426.51
-8425.19
-8423.16
-8420.75
-8418.17
-8415.54
-8412.95
-8410.47
-8408.13
-8405.97
-8404
-8402.25
-8400.72
-8399.44
-8398.41
-8397.64
-8397.14
-8396.92
-8396.99
-8397.34
-8397.99
-8398.94
-8400.18
-8401.7
-8403.51
-8405.57
-8407.84
-8410.29
-8412.81
-8415.28
-8417.5
-8419.13
-8419.62
-8418.02
-8412.61
-8400.01
-8373.04
-8314.81
-8180.76
-7838.57
-6850.14
-6333.98
-6850.64
-7000.04
-7052.62
-7074.29
-7084.17
-7088.84
-7090.95
-7091.7
-7091.7
-7091.28
-7090.61
-7089.8
-7088.94
-7088.07
-7087.21
-7086.38
-7085.6
-7084.88
-7084.22
-7083.63
-7083.13
-7082.7
-7082.35
-7082.1
-7081.93
-7081.86
-7081.88
-7082
-7082.21
-7082.53
-7082.94
-7083.45
-7084.06
-7084.74
-7085.5
-7086.32
-7087.16
-7087.98
-7088.71
-7089.24
-7089.38
-7088.81
-7086.91
-7082.48
-7072.87
-7051.5
-6999.22
-6850.14
-6333.82
-1401.87
-2230.2
-2523.94
-2646.51
-2704.66
-2734.93
-2751.69
-2761.32
-2766.93
-2770.17
-2771.94
-2772.81
-2773.09
-2773.02
-2772.72
-2772.29
-2771.79
-2771.26
-2770.73
-2770.23
-2769.77
-2769.35
-2769
-2768.71
-2768.49
-2768.34
-2768.26
-2768.27
-2768.35
-2768.5
-2768.72
-2769.01
-2769.35
-2769.72
-2770.09
-2770.43
-2770.67
-2770.73
-2770.46
-2769.65
-2767.97
-2764.86
-2759.41
-2749.97
-2733.42
-2703.39
-2645.5
-2523.2
-2229.75
-1401.72
-2230.2
-3940.09
-4651.83
-4976.84
-5138.59
-5224.93
-5273.41
-5301.48
-5317.9
-5327.37
-5332.58
-5335.1
-5335.93
-5335.68
-5334.77
-5333.47
-5331.96
-5330.37
-5328.79
-5327.28
-5325.89
-5324.64
-5323.58
-5322.7
-5322.04
-5321.59
-5321.37
-5321.38
-5321.62
-5322.08
-5322.75
-5323.61
-5324.63
-5325.74
-5326.87
-5327.89
-5328.63
-5328.82
-5328.05
-5325.7
-5320.77
-5311.67
-5295.73
-5268.22
-5220.39
-5134.77
-4973.8
-4649.62
-3938.75
-2229.75
-2523.94
-4651.84
-5611.49
-6076.85
-6318.31
-6450.82
-6526.56
-6570.91
-6597.03
-6612.15
-6620.45
-6624.44
-6625.69
-6625.2
-6623.64
-6621.45
-6618.92
-6616.27
-6613.64
-6611.12
-6608.8
-6606.74
-6604.96
-6603.51
-6602.4
-6601.66
-6601.29
-6601.31
-6601.71
-6602.47
-6603.59
-6605.02
-6606.71
-6608.57
-6610.47
-6612.2
-6613.48
-6613.87
-6612.71
-6609
-6601.16
-6586.67
-6561.34
-6517.93
-6443.27
-6311.97
-6071.8
-5607.82
-4649.61
-2523.19
-2646.52
-4976.87
-6076.88
-6632.55
-6930.53
-7098.14
-7195.64
-7253.42
-7287.7
-7307.61
-7318.51
-7323.68
-7325.18
-7324.36
-7322.1
-7318.99
-7315.43
-7311.71
-7308.02
-7304.5
-7301.26
-7298.38
-7295.9
-7293.87
-7292.33
-7291.29
-7290.78
-7290.81
-7291.36
-7292.43
-7294
-7296
-7298.37
-7300.99
-7303.66
-7306.14
-7308.01
-7308.7
-7307.32
-7302.54
-7292.28
-7273.25
-7240.08
-7183.62
-7087.62
-6921.68
-6625.51
-6071.76
-4973.76
-2645.48
-2704.68
-5138.65
-6318.4
-6930.6
-7266.9
-7459.84
-7573.78
-7642.03
-7682.78
-7706.49
-7719.41
-7725.42
-7726.98
-7725.7
-7722.67
-7718.6
-7713.99
-7709.2
-7704.46
-7699.95
-7695.8
-7692.1
-7688.93
-7686.34
-7684.36
-7683.04
-7682.39
-7682.42
-7683.13
-7684.5
-7686.51
-7689.09
-7692.14
-7695.52
-7699
-7702.25
-7704.79
-7705.89
-7704.5
-7698.99
-7686.88
-7664.3
-7624.96
-7558.4
-7446.38
-7255.58
-6921.6
-6311.85
-5134.68
-2703.35
-2734.97
-5225.05
-6450.99
-7098.32
-7459.96
-7670.52
-7796.34
-7872.34
-7917.95
-7944.48
-7958.83
-7965.31
-7966.71
-7964.85
-7960.98
-7955.92
-7950.25
-7944.38
-7938.59
-7933.1
-7928.05
-7923.55
-7919.7
-7916.54
-7914.14
-7912.54
-7911.75
-7911.78
-7912.65
-7914.33
-7916.78
-7919.93
-7923.67
-7927.81
-7932.11
-7936.18
-7939.45
-7941.11
-7939.91
-7934.03
-7920.67
-7895.5
-7851.62
-7777.67
-7654.18
-7446.23
-7087.39
-6443.05
-5220.23
-2733.35
-2751.76
-5273.61
-6526.86
-7195.99
-7574.11
-7796.56
-7930.63
-8012.11
-8061.12
-8089.58
-8104.8
-8111.41
-8112.44
-8109.88
-8105.09
-8099
-8092.26
-8085.32
-8078.5
-8072.03
-8066.09
-8060.81
-8056.29
-8052.59
-8049.77
-8047.89
-8046.96
-8047.01
-8048.03
-8050.01
-8052.9
-8056.61
-8061.03
-8065.96
-8071.09
-8076.02
-8080.1
-8082.42
-8081.63
-8075.72
-8061.67
-8034.81
-7987.81
-7908.74
-7777.41
-7558.01
-7183.19
-6517.55
-5267.96
-2749.87
-2761.43
-5301.79
-6571.39
-7254.01
-7642.64
-7872.88
-8012.45
-8097.56
-8148.8
-8178.42
-8194.01
-8200.44
-8200.9
-8197.53
-8191.77
-8184.63
-8176.81
-8168.79
-8160.95
-8153.53
-8146.73
-8140.68
-8135.5
-8131.26
-8128.05
-8125.89
-8124.83
-8124.89
-8126.07
-8128.34
-8131.66
-8135.93
-8141.03
-8146.73
-8152.72
-8158.53
-8163.48
-8166.58
-8166.39
-8160.77
-8146.5
-8118.72
-8069.79
-7987.42
-7850.99
-7624.23
-7239.37
-6560.75
-5295.33
-2759.27
-2767.09
-5318.35
-6597.74
-7288.6
-7683.77
-7918.92
-8061.94
-8149.3
-8201.81
-8231.95
-8247.5
-8253.49
-8253.23
-8248.95
-8242.17
-8233.96
-8225.06
-8215.99
-8207.14
-8198.79
-8191.14
-8184.34
-8178.53
-8173.78
-8170.17
-8167.75
-8166.57
-8166.63
-8167.96
-8170.52
-8174.26
-8179.09
-8184.85
-8191.33
-8198.18
-8204.9
-8210.77
-8214.75
-8215.31
-8210.22
-8196.16
-8168.08
-8118.15
-8033.87
-7894.37
-7663.13
-7272.18
-6585.81
-5311.11
-2764.66
-2770.38
-5328
-6613.14
-7308.89
-7707.96
-7946.01
-8091.01
-8179.57
-8232.63
-8262.8
-8277.99
-8283.34
-8282.23
-8276.97
-8269.14
-8259.85
-8249.87
-8239.77
-8229.94
-8220.68
-8212.21
-8204.7
-8198.26
-8193.02
-8189.03
-8186.36
-8185.05
-8185.13
-8186.6
-8189.44
-8193.59
-8198.96
-8205.39
-8212.63
-8220.33
-8227.97
-8234.8
-8239.72
-8241.17
-8236.82
-8223.28
-8195.38
-8145.18
-8060.02
-7918.9
-7685.16
-7290.76
-6599.97
-5320
-2767.7
-2772.22
-5333.41
-6621.78
-7320.26
-7721.46
-7961.04
-8107
-8196
-8249.06
-8278.9
-8293.49
-8298.03
-8295.98
-8289.7
-8280.8
-8270.44
-8259.42
-8248.3
-8237.52
-8227.39
-8218.13
-8209.92
-8202.89
-8197.17
-8192.81
-8189.9
-8188.48
-8188.57
-8190.18
-8193.29
-8197.84
-8203.73
-8210.8
-8218.79
-8227.34
-8235.91
-8243.71
-8249.62
-8252.04
-8248.59
-8235.8
-8208.44
-8158.49
-8073.2
-7931.48
-7696.6
-7300.49
-6607.41
-5324.69
-2769.3
-2773.17
-5336.18
-6626.17
-7325.97
-7728.16
-7968.33
-8114.53
-8203.44
-8256.14
-8285.37
-8299.18
-8302.81
-8299.77
-8292.45
-8282.49
-8271.08
-8259.03
-8246.94
-8235.24
-8224.27
-8214.25
-8205.38
-8197.79
-8191.6
-8186.91
-8183.76
-8182.23
-8182.33
-8184.08
-8187.44
-8192.38
-8198.78
-8206.46
-8215.19
-8224.56
-8234.04
-8242.81
-8249.75
-8253.18
-8250.73
-8238.86
-8212.3
-8162.97
-8078.06
-7936.43
-7701.33
-7304.64
-6610.67
-5326.77
-2770.01
-2773.55
-5337.28
-6627.88
-7328.11
-7730.51
-7970.68
-8116.64
-8205.1
-8257.17
-8285.62
-8298.55
-8301.21
-8297.15
-8288.78
-8277.78
-8265.34
-8252.31
-8239.28
-8226.72
-8214.94
-8204.2
-8194.7
-8186.58
-8179.96
-8174.93
-8171.57
-8169.93
-8170.05
-8171.92
-8175.54
-8180.84
-8187.71
-8196
-8205.42
-8215.6
-8225.96
-8235.7
-8243.65
-8248.13
-8246.73
-8235.88
-8210.28
-8161.81
-8077.63
-7936.56
-7701.82
-7305.3
-6611.3
-5327.22
-2770.18
-2773.58
-5337.35
-6627.91
-7328.01
-7730.14
-7969.9
-8115.31
-8203.1
-8254.38
-8281.95
-8293.93
-8295.6
-8290.52
-8281.13
-8269.12
-8255.7
-8241.73
-8227.81
-8214.42
-8201.89
-8190.48
-8180.38
-8171.76
-8164.73
-8159.39
-8155.83
-8154.09
-8154.21
-8156.21
-8160.06
-8165.7
-8173.04
-8181.89
-8191.98
-8202.92
-8214.14
-8224.81
-8233.75
-8239.28
-8238.95
-8229.18
-8204.63
-8157.17
-8073.92
-7933.7
-7699.7
-7303.81
-6610.32
-5326.67
-2770
-2773.4
-5336.78
-6626.93
-7326.54
-7728.11
-7967.22
-8111.91
-8198.88
-8249.29
-8275.94
-8286.95
-8287.64
-8281.56
-8271.19
-8258.22
-8243.87
-8229.01
-8214.26
-8200.09
-8186.86
-8174.81
-8164.16
-8155.07
-8147.66
-8142.04
-8138.28
-8136.45
-8136.59
-8138.7
-8142.76
-8148.73
-8156.49
-8165.87
-8176.6
-8188.26
-8200.29
-8211.85
-8221.76
-8228.3
-8229.02
-8220.33
-8196.88
-8150.5
-8068.3
-7929.09
-7696.04
-7301.04
-6608.4
-5325.54
-2769.63
-2773.09
-5335.86
-6625.36
-7324.3
-7725.14
-7963.48
-8107.34
-8193.45
-8242.96
-8268.68
-8278.74
-8278.47
-8271.45
-8260.14
-8246.27
-8231.05
-8215.36
-8199.84
-8184.96
-8171.07
-8158.44
-8147.28
-8137.75
-8129.99
-8124.1
-8120.17
-8118.26
-8118.4
-8120.62
-8124.88
-8131.15
-8139.31
-8149.18
-8160.49