/*--------------------------------*- C++ -*----------------------------------*\
| =========                 |                                                 |
| \\      /  F ield         | OpenFOAM: The Open Source CFD Toolbox           |
|  \\    /   O peration     | Version:  5.x                                   |
|   \\  /    A nd           | Web:      www.OpenFOAM.org                      |
|    \\/     M anipulation  |                                                 |
\*---------------------------------------------------------------------------*/
FoamFile
{
    version     2.0;
    format      ascii;
    class       volScalarField;
    location    "1.6";
    object      T;
}
// * * * * * * * * * * * * * * * * * * * * * * * * * * * * * * * * * * * * * //

dimensions      [0 0 0 1 0 0 0];

internalField   nonuniform List<scalar> 
25000
(
300.734
301.375
301.754
302.025
302.24
302.421
302.579
302.72
302.847
302.964
303.071
303.17
303.262
303.347
303.426
303.498
303.565
303.626
303.68
303.73
303.773
303.81
303.841
303.866
303.884
303.896
303.901
303.898
303.889
303.873
303.848
303.816
303.776
303.728
303.672
303.606
303.532
303.448
303.355
303.252
303.137
303.011
302.871
302.715
302.54
302.34
302.105
301.812
301.41
300.746
301.375
302.941
303.987
304.77
305.403
305.94
306.41
306.83
307.211
307.559
307.88
308.177
308.451
308.706
308.941
309.159
309.358
309.54
309.704
309.851
309.981
310.092
310.185
310.259
310.314
310.349
310.364
310.357
310.33
310.28
310.207
310.112
309.992
309.848
309.678
309.482
309.26
309.01
308.731
308.421
308.079
307.7
307.282
306.817
306.296
305.703
305.008
304.159
303.046
301.41
301.754
303.986
305.583
306.825
307.849
308.726
309.499
310.191
310.821
311.397
311.929
312.421
312.877
313.299
313.69
314.051
314.382
314.684
314.957
315.202
315.416
315.601
315.756
315.879
315.97
316.028
316.053
316.043
315.997
315.914
315.794
315.634
315.436
315.196
314.914
314.59
314.221
313.805
313.342
312.828
312.261
311.634
310.943
310.176
309.318
308.347
307.221
305.87
304.16
301.812
302.024
304.768
306.823
308.47
309.852
311.049
312.11
313.065
313.936
314.735
315.473
316.157
316.791
317.378
317.923
318.425
318.886
319.307
319.688
320.028
320.327
320.585
320.8
320.972
321.099
321.18
321.215
321.2
321.136
321.021
320.853
320.632
320.355
320.021
319.629
319.177
318.663
318.086
317.442
316.728
315.939
315.071
314.113
313.054
311.874
310.546
309.021
307.223
305.011
302.106
302.238
305.398
307.843
309.846
311.554
313.048
314.382
315.589
316.692
317.707
318.645
319.516
320.323
321.073
321.767
322.408
322.997
323.535
324.021
324.456
324.838
325.167
325.443
325.662
325.825
325.929
325.973
325.954
325.873
325.726
325.512
325.229
324.875
324.449
323.949
323.372
322.717
321.98
321.159
320.25
319.247
318.143
316.929
315.59
314.104
312.441
310.552
308.355
305.709
302.342
302.418
305.931
308.713
311.034
313.038
314.808
316.398
317.843
319.168
320.39
321.522
322.574
323.55
324.457
325.298
326.075
326.788
327.44
328.029
328.556
329.02
329.42
329.753
330.02
330.217
330.343
330.397
330.375
330.276
330.098
329.839
329.496
329.067
328.551
327.945
327.247
326.453
325.562
324.57
323.471
322.261
320.931
319.47
317.864
316.09
314.116
311.891
309.335
306.308
302.544
302.573
306.394
309.475
312.082
314.356
316.381
318.21
319.88
321.416
322.836
324.154
325.38
326.52
327.579
328.561
329.469
330.304
331.066
331.756
332.374
332.917
333.385
333.775
334.088
334.319
334.467
334.53
334.504
334.389
334.181
333.877
333.476
332.975
332.371
331.663
330.846
329.919
328.879
327.72
326.439
325.03
323.483
321.788
319.93
317.884
315.62
313.086
310.204
306.836
302.722
302.711
306.805
310.153
313.019
315.54
317.8
319.853
321.734
323.47
325.079
326.574
327.967
329.263
330.469
331.588
332.623
333.575
334.444
335.232
335.936
336.556
337.09
337.537
337.893
338.157
338.327
338.399
338.37
338.239
338.001
337.655
337.198
336.626
335.938
335.131
334.2
333.145
331.96
330.643
329.187
327.587
325.834
323.916
321.819
319.52
316.986
314.167
310.987
307.311
302.881
302.835
307.175
310.765
313.865
316.613
319.091
321.352
323.431
325.355
327.142
328.806
330.357
331.803
333.149
334.4
335.556
336.621
337.594
338.475
339.263
339.957
340.555
341.056
341.455
341.751
341.941
342.022
341.99
341.843
341.578
341.191
340.68
340.041
339.271
338.369
337.329
336.15
334.828
333.358
331.736
329.955
328.006
325.879
323.557
321.02
318.234
315.153
311.7
307.742
303.025
302.947
307.51
311.319
314.634
317.591
320.27
322.724
324.988
327.088
329.043
330.866
332.568
334.157
335.636
337.012
338.285
339.457
340.528
341.499
342.368
343.134
343.793
344.345
344.786
345.112
345.322
345.412
345.377
345.216
344.924
344.498
343.935
343.231
342.384
341.391
340.247
338.951
337.498
335.883
334.103
332.15
330.016
327.691
325.16
322.4
319.381
316.057
312.352
308.136
303.157
303.049
307.814
311.824
315.336
318.484
321.349
323.982
326.418
328.683
330.795
332.769
334.613
336.335
337.941
339.435
340.819
342.093
343.259
344.315
345.261
346.094
346.813
347.414
347.894
348.25
348.479
348.576
348.54
348.364
348.047
347.584
346.972
346.207
345.286
344.207
342.965
341.557
339.979
338.228
336.298
334.184
331.877
329.366
326.638
323.672
320.437
316.887
312.95
308.497
303.278
303.141
308.092
312.284
315.976
319.3
322.336
325.135
327.731
330.149
332.409
334.522
336.499
338.348
340.073
341.679
343.167
344.538
345.793
346.93
347.949
348.846
349.62
350.268
350.785
351.169
351.416
351.522
351.483
351.295
350.953
350.455
349.797
348.974
347.984
346.823
345.488
343.975
342.281
340.401
338.331
336.065
333.596
330.913
328.002
324.843
321.408
317.651
313.5
308.829
303.388
303.226
308.345
312.704
316.56
320.045
323.238
326.19
328.933
331.494
333.89
336.133
338.235
340.202
342.038
343.749
345.334
346.796
348.135
349.348
350.435
351.394
352.22
352.912
353.465
353.875
354.139
354.253
354.211
354.011
353.647
353.116
352.414
351.538
350.482
349.245
347.823
346.211
344.408
342.408
340.208
337.801
335.18
332.337
329.256
325.92
322.299
318.351
314.004
309.133
303.49
303.303
308.575
313.086
317.092
320.724
324.061
327.152
330.031
332.723
335.244
337.609
339.825
341.901
343.842
345.649
347.326
348.873
350.289
351.574
352.725
353.74
354.616
355.348
355.935
356.37
356.65
356.771
356.728
356.516
356.131
355.57
354.828
353.9
352.784
351.476
349.972
348.27
346.365
344.254
341.932
339.394
336.634
333.642
330.406
326.906
323.116
318.992
314.465
309.411
303.583
303.372
308.783
313.432
317.573
321.339
324.807
328.026
331.029
333.84
336.477
338.952
341.275
343.451
345.487
347.385
349.146
350.771
352.26
353.61
354.82
355.888
356.809
357.58
358.197
358.655
358.951
359.078
359.033
358.811
358.408
357.818
357.038
356.064
354.892
353.518
351.94
350.153
348.154
345.94
343.507
340.85
337.962
334.834
331.454
327.805
323.86
319.576
314.885
309.664
303.667
303.435
308.97
313.743
318.007
321.894
325.48
328.814
331.929
334.849
337.591
340.167
342.586
344.855
346.977
348.957
350.795
352.492
354.047
355.458
356.723
357.839
358.802
359.608
360.253
360.733
361.042
361.176
361.129
360.898
360.477
359.861
359.047
358.03
356.807
355.373
353.726
351.862
349.778
347.471
344.936
342.169
339.164
335.913
332.403
328.619
324.532
320.104
315.265
309.893
303.744
303.491
309.137
314.021
318.395
322.389
326.081
329.519
332.735
335.753
338.589
341.255
343.761
346.113
348.315
350.369
352.277
354.039
355.654
357.119
358.434
359.593
360.594
361.432
362.103
362.602
362.924
363.064
363.016
362.776
362.339
361.7
360.855
359.8
358.53
357.042
355.333
353.4
351.238
348.846
346.22
343.354
340.244
336.882
333.255
329.349
325.136
320.577
315.605
310.098
303.812
303.54
309.285
314.267
318.737
322.827
326.613
330.142
333.448
336.552
339.472
342.22
344.803
347.229
349.501
351.621
353.592
355.412
357.08
358.595
359.954
361.152
362.188
363.055
363.749
364.265
364.598
364.743
364.694
364.447
363.996
363.336
362.463
361.373
360.062
358.526
356.761
354.765
352.535
350.068
347.36
344.406
341.203
337.741
334.011
329.996
325.671
320.997
315.907
310.28
303.873
303.583
309.414
314.48
319.035
323.209
327.076
330.685
334.069
337.249
340.243
343.061
345.712
348.203
350.537
352.716
354.741
356.612
358.328
359.886
361.283
362.517
363.582
364.474
365.189
365.72
366.063
366.213
366.163
365.909
365.446
364.768
363.871
362.75
361.403
359.824
358.011
355.96
353.67
351.136
348.356
345.326
342.04
338.492
334.671
330.561
326.138
321.363
316.17
310.438
303.926
303.619
309.523
314.663
319.29
323.534
327.472
331.149
334.6
337.845
340.901
343.78
346.49
349.036
351.423
353.652
355.725
357.64
359.396
360.992
362.423
363.686
364.777
365.691
366.423
366.968
367.32
367.474
367.423
367.164
366.69
365.996
365.078
363.931
362.552
360.937
359.082
356.985
354.642
352.052
349.21
346.114
342.758
339.135
335.236
331.045
326.538
321.677
316.395
310.574
303.971
303.65
309.615
314.814
319.501
323.805
327.8
331.535
335.041
338.341
341.449
344.379
347.137
349.73
352.161
354.432
356.544
358.496
360.287
361.913
363.372
364.661
365.773
366.706
367.453
368.009
368.368
368.525
368.474
368.21
367.727
367.02
366.084
364.916
363.511
361.865
359.975
357.838
355.453
352.815
349.922
346.77
343.355
339.671
335.707
331.448
326.871
321.938
316.583
310.687
304.009
303.674
309.687
314.935
319.67
324.021
328.063
331.843
335.394
338.736
341.887
344.857
347.655
350.285
352.751
355.056
357.2
359.181
360.999
362.65
364.132
365.44
366.571
367.518
368.277
368.841
369.207
369.366
369.315
369.047
368.557
367.839
366.89
365.704
364.278
362.607
360.689
358.522
356.101
353.425
350.491
347.295
343.833
340.099
336.083
331.77
327.138
322.147
316.733
310.777
304.039
303.692
309.742
315.026
319.796
324.183
328.259
332.074
335.657
339.033
342.215
345.215
348.042
350.7
353.194
355.524
357.691
359.694
361.533
363.203
364.702
366.025
367.169
368.127
368.895
369.466
369.836
369.998
369.946
369.675
369.18
368.454
367.494
366.295
364.853
363.164
361.225
359.034
356.587
353.883
350.918
347.689
344.192
340.42
336.365
332.012
327.337
322.303
316.845
310.845
304.062
303.704
309.778
315.086
319.881
324.29
328.39
332.227
335.833
339.23
342.433
345.454
348.3
350.977
353.488
355.835
358.018
360.037
361.889
363.572
365.082
366.415
367.568
368.533
369.307
369.883
370.255
370.419
370.367
370.094
369.595
368.864
367.897
366.689
365.237
363.536
361.583
359.376
356.911
354.188
351.202
347.951
344.431
340.634
336.553
332.173
327.47
322.407
316.92
310.89
304.077
303.71
309.796
315.116
319.923
324.344
328.455
332.304
335.921
339.329
342.543
345.574
348.429
351.116
353.636
355.991
358.182
360.208
362.067
363.756
365.272
366.61
367.767
368.736
369.513
370.091
370.465
370.629
370.577
370.304
369.803
369.069
368.099
366.887
365.429
363.721
361.762
359.547
357.074
354.34
351.344
348.082
344.55
340.741
336.647
332.253
327.537
322.46
316.958
310.913
304.085
303.71
309.796
315.116
319.923
324.344
328.455
332.304
335.921
339.329
342.543
345.574
348.429
351.116
353.636
355.991
358.182
360.208
362.067
363.756
365.272
366.61
367.767
368.736
369.513
370.091
370.465
370.629
370.577
370.304
369.803
369.069
368.099
366.887
365.429
363.721
361.762
359.547
357.074
354.34
351.344
348.082
344.55
340.741
336.647
332.253
327.537
322.46
316.958
310.913
304.085
303.704
309.778
315.086
319.881
324.29
328.39
332.227
335.833
339.23
342.433
345.454
348.3
350.977
353.488
355.835
358.018
360.037
361.889
363.572
365.082
366.415
367.568
368.533
369.307
369.883
370.255
370.419
370.367
370.094
369.595
368.864
367.897
366.689
365.237
363.536
361.583
359.376
356.911
354.188
351.202
347.951
344.431
340.634
336.553
332.173
327.47
322.407
316.92
310.89
304.077
303.692
309.742
315.026
319.796
324.183
328.259
332.074
335.658
339.033
342.215
345.216
348.042
350.7
353.194
355.524
357.691
359.695
361.533
363.203
364.702
366.026
367.169
368.127
368.895
369.466
369.836
369.998
369.946
369.675
369.18
368.454
367.494
366.295
364.853
363.164
361.225
359.034
356.587
353.883
350.917
347.689
344.192
340.42
336.365
332.012
327.337
322.303
316.845
310.845
304.062
303.674
309.687
314.935
319.67
324.021
328.063
331.843
335.394
338.736
341.887
344.857
347.655
350.285
352.751
355.056
357.2
359.181
360.999
362.65
364.132
365.441
366.571
367.518
368.277
368.841
369.207
369.366
369.315
369.047
368.557
367.839
366.89
365.704
364.278
362.607
360.689
358.522
356.101
353.425
350.491
347.295
343.833
340.099
336.083
331.77
327.138
322.147
316.733
310.777
304.039
303.65
309.615
314.814
319.501
323.805
327.8
331.535
335.041
338.341
341.449
344.379
347.138
349.73
352.162
354.433
356.544
358.496
360.287
361.913
363.373
364.661
365.774
366.706
367.453
368.009
368.368
368.525
368.474
368.21
367.727
367.02
366.084
364.916
363.511
361.865
359.975
357.839
355.453
352.815
349.922
346.77
343.355
339.671
335.707
331.448
326.871
321.938
316.583
310.687
304.009
303.619
309.523
314.663
319.29
323.534
327.472
331.149
334.6
337.845
340.902
343.781
346.49
349.037
351.423
353.653
355.725
357.64
359.397
360.992
362.423
363.686
364.777
365.691
366.424
366.968
367.32
367.474
367.424
367.164
366.69
365.996
365.078
363.931
362.552
360.937
359.082
356.985
354.642
352.052
349.21
346.114
342.758
339.135
335.236
331.045
326.538
321.677
316.395
310.574
303.971
303.583
309.414
314.48
319.035
323.209
327.076
330.685
334.069
337.249
340.243
343.061
345.713
348.203
350.537
352.716
354.741
356.612
358.328
359.886
361.284
362.517
363.582
364.474
365.189
365.72
366.064
366.213
366.164
365.91
365.446
364.768
363.871
362.75
361.403
359.824
358.011
355.96
353.67
351.136
348.356
345.326
342.04
338.492
334.671
330.561
326.138
321.363
316.17
310.438
303.926
303.54
309.285
314.267
318.737
322.827
326.613
330.142
333.448
336.552
339.472
342.22
344.803
347.229
349.501
351.622
353.592
355.412
357.081
358.595
359.954
361.153
362.188
363.055
363.749
364.265
364.598
364.743
364.694
364.447
363.996
363.336
362.463
361.373
360.062
358.526
356.761
354.765
352.535
350.068
347.36
344.406
341.202
337.741
334.011
329.996
325.671
320.997
315.906
310.279
303.873
303.491
309.137
314.021
318.395
322.39
326.081
329.519
332.735
335.753
338.589
341.256
343.762
346.113
348.315
350.369
352.277
354.039
355.654
357.12
358.434
359.594
360.595
361.433
362.104
362.603
362.924
363.064
363.016
362.777
362.34
361.701
360.856
359.8
358.53
357.042
355.333
353.4
351.238
348.846
346.22
343.354
340.244
336.881
333.255
329.348
325.136
320.577
315.605
310.098
303.812
303.435
308.97
313.743
318.007
321.894
325.48
328.814
331.93
334.85
337.591
340.167
342.586
344.855
346.978
348.958
350.796
352.493
354.047
355.458
356.723
357.839
358.802
359.608
360.253
360.733
361.042
361.176
361.13
360.898
360.477
359.861
359.047
358.03
356.807
355.373
353.726
351.862
349.778
347.471
344.936
342.169
339.164
335.913
332.403
328.619
324.532
320.104
315.265
309.893
303.744
303.372
308.783
313.432
317.573
321.34
324.807
328.026
331.029
333.841
336.477
338.952
341.275
343.452
345.487
347.385
349.146
350.771
352.26
353.611
354.821
355.888
356.809
357.581
358.197
358.656
358.951
359.078
359.034
358.811
358.408
357.818
357.038
356.064
354.892
353.518
351.94
350.153
348.154
345.94
343.507
340.85
337.961
334.834
331.454
327.805
323.859
319.576
314.885
309.664
303.667
303.303
308.575
313.086
317.092
320.724
324.061
327.152
330.032
332.723
335.245
337.609
339.826
341.902
343.842
345.65
347.327
348.874
350.29
351.575
352.726
353.741
354.616
355.349
355.935
356.37
356.651
356.771
356.728
356.516
356.132
355.57
354.828
353.9
352.784
351.476
349.972
348.27
346.365
344.253
341.932
339.394
336.634
333.642
330.406
326.906
323.116
318.992
314.465
309.411
303.583
303.226
308.345
312.704
316.56
320.046
323.239
326.19
328.934
331.494
333.89
336.134
338.235
340.202
342.039
343.749
345.335
346.797
348.135
349.349
350.436
351.394
352.221
352.912
353.465
353.876
354.14
354.253
354.212
354.011
353.648
353.117
352.415
351.538
350.482
349.245
347.823
346.211
344.408
342.408
340.207
337.801
335.18
332.336
329.256
325.92
322.299
318.351
314.004
309.133
303.49
303.141
308.092
312.284
315.976
319.3
322.336
325.135
327.731
330.15
332.409
334.522
336.499
338.348
340.074
341.679
343.167
344.538
345.793
346.931
347.949
348.847
349.621
350.268
350.786
351.17
351.417
351.523
351.483
351.295
350.954
350.456
349.797
348.974
347.984
346.823
345.488
343.975
342.281
340.401
338.331
336.065
333.596
330.913
328.002
324.843
321.407
317.65
313.5
308.829
303.388
303.049
307.814
311.824
315.336
318.484
321.349
323.982
326.418
328.684
330.796
332.769
334.613
336.335
337.942
339.436
340.819
342.094
343.259
344.316
345.262
346.095
346.813
347.414
347.894
348.25
348.479
348.577
348.54
348.365
348.047
347.584
346.972
346.207
345.287
344.207
342.965
341.557
339.979
338.228
336.298
334.184
331.877
329.366
326.638
323.672
320.436
316.887
312.95
308.497
303.278
302.947
307.51
311.319
314.634
317.591
320.27
322.724
324.988
327.089
329.043
330.867
332.569
334.157
335.637
337.012
338.285
339.457
340.529
341.5
342.369
343.134
343.794
344.345
344.786
345.113
345.323
345.412
345.378
345.216
344.924
344.498
343.935
343.231
342.385
341.391
340.248
338.951
337.498
335.883
334.103
332.15
330.016
327.691
325.159
322.4
319.381
316.057
312.352
308.136
303.157
302.835
307.175
310.765
313.865
316.613
319.092
321.352
323.431
325.355
327.142
328.806
330.358
331.804
333.15
334.4
335.557
336.621
337.594
338.475
339.263
339.958
340.556
341.056
341.456
341.752
341.942
342.022
341.991
341.844
341.578
341.191
340.68
340.041
339.272
338.369
337.33
336.151
334.828
333.358
331.736
329.954
328.006
325.878
323.557
321.02
318.234
315.153
311.7
307.742
303.025
302.711
306.805
310.154
313.019
315.54
317.801
319.853
321.734
323.47
325.079
326.575
327.967
329.263
330.469
331.588
332.623
333.575
334.445
335.232
335.936
336.556
337.091
337.537
337.894
338.158
338.327
338.399
338.37
338.239
338.001
337.655
337.198
336.627
335.938
335.131
334.201
333.145
331.96
330.643
329.187
327.587
325.834
323.916
321.819
319.52
316.985
314.167
310.987
307.311
302.881
302.573
306.394
309.475
312.082
314.356
316.381
318.21
319.88
321.416
322.836
324.155
325.38
326.52
327.579
328.562
329.47
330.304
331.067
331.757
332.374
332.917
333.385
333.776
334.088
334.319
334.467
334.53
334.505
334.389
334.181
333.877
333.476
332.975
332.371
331.663
330.846
329.919
328.879
327.72
326.439
325.03
323.483
321.788
319.929
317.884
315.62
313.086
310.204
306.836
302.722
302.418
305.931
308.713
311.034
313.038
314.808
316.398
317.843
319.168
320.39
321.523
322.574
323.551
324.458
325.298
326.075
326.789
327.44
328.03
328.557
329.021
329.42
329.754
330.02
330.217
330.344
330.397
330.375
330.276
330.098
329.839
329.496
329.067
328.551
327.945
327.247
326.453
325.562
324.57
323.471
322.261
320.931
319.47
317.864
316.09
314.116
311.891
309.334
306.308
302.544
302.238
305.398
307.843
309.846
311.554
313.048
314.382
315.589
316.692
317.707
318.646
319.516
320.324
321.073
321.768
322.409
322.998
323.535
324.021
324.456
324.839
325.168
325.443
325.662
325.825
325.929
325.973
325.955
325.873
325.726
325.512
325.229
324.875
324.449
323.949
323.372
322.717
321.98
321.159
320.25
319.247
318.143
316.929
315.589
314.104
312.441
310.552
308.355
305.709
302.342
302.024
304.768
306.823
308.47
309.852
311.049
312.11
313.065
313.936
314.735
315.473
316.157
316.791
317.379
317.923
318.425
318.886
319.307
319.688
320.028
320.328
320.585
320.8
320.972
321.099
321.181
321.215
321.201
321.137
321.021
320.854
320.632
320.355
320.021
319.629
319.177
318.663
318.086
317.442
316.728
315.939
315.071
314.113
313.054
311.874
310.546
309.021
307.223
305.011
302.106
301.754
303.986
305.583
306.825
307.849
308.727
309.499
310.191
310.821
311.397
311.929
312.421
312.877
313.299
313.69
314.051
314.382
314.684
314.958
315.202
315.417
315.602
315.756
315.879
315.97
316.029
316.053
316.043
315.997
315.914
315.794
315.635
315.436
315.196
314.914
314.59
314.221
313.805
313.342
312.828
312.261
311.634
310.943
310.176
309.318
308.347
307.221
305.87
304.16
301.812
301.375
302.941
303.987
304.77
305.403
305.94
306.41
306.83
307.211
307.559
307.88
308.177
308.451
308.706
308.942
309.159
309.358
309.54
309.705
309.852
309.981
310.092
310.185
310.259
310.314
310.349
310.364
310.358
310.33
310.28
310.208
310.112
309.992
309.848
309.678
309.483
309.26
309.01
308.731
308.421
308.078
307.7
307.282
306.817
306.296
305.703
305.008
304.159
303.046
301.41
300.734
301.375
301.754
302.025
302.24
302.421
302.579
302.72
302.847
302.964
303.071
303.17
303.262
303.347
303.426
303.498
303.565
303.626
303.681
303.73
303.773
303.81
303.841
303.866
303.884
303.896
303.901
303.899
303.889
303.873
303.848
303.816
303.776
303.728
303.672
303.606
303.532
303.448
303.355
303.252
303.137
303.011
302.871
302.715
302.54
302.34
302.105
301.812
301.41
300.746
300.295
300.727
301.046
301.295
301.501
301.677
301.833
301.972
302.099
302.215
302.322
302.421
302.513
302.598
302.677
302.75
302.816
302.877
302.932
302.982
303.025
303.062
303.093
303.118
303.136
303.148
303.153
303.151
303.142
303.125
303.101
303.069
303.029
302.98
302.924
302.858
302.784
302.7
302.607
302.503
302.389
302.263
302.123
301.969
301.796
301.601
301.375
301.103
300.762
300.307
300.727
301.893
302.798
303.525
304.133
304.657
305.12
305.537
305.915
306.263
306.583
306.88
307.155
307.409
307.645
307.863
308.063
308.245
308.41
308.557
308.687
308.798
308.891
308.966
309.021
309.056
309.071
309.065
309.037
308.987
308.914
308.818
308.698
308.554
308.384
308.188
307.965
307.715
307.435
307.126
306.784
306.406
305.99
305.529
305.014
304.433
303.764
302.971
301.998
300.763
301.045
302.798
304.211
305.375
306.361
307.219
307.981
308.667
309.293
309.869
310.4
310.891
311.347
311.77
312.162
312.523
312.855
313.158
313.432
313.677
313.892
314.077
314.232
314.356
314.447
314.505
314.53
314.52
314.474
314.391
314.27
314.111
313.911
313.671
313.389
313.064
312.694
312.279
311.815
311.302
310.734
310.11
309.421
308.659
307.812
306.86
305.771
304.499
302.972
301.104
301.294
303.523
305.372
306.926
308.262
309.435
310.483
311.431
312.297
313.095
313.832
314.515
315.15
315.738
316.283
316.786
317.248
317.67
318.052
318.393
318.693
318.951
319.167
319.339
319.466
319.548
319.582
319.568
319.504
319.389
319.22
318.998
318.721
318.386
317.994
317.541
317.026
316.448
315.804
315.09
314.302
313.435
312.481
311.429
310.263
308.958
307.479
305.774
303.767
301.376
301.499
304.128
306.354
308.257
309.913
311.38
312.698
313.896
314.994
316.007
316.945
317.815
318.623
319.374
320.069
320.711
321.302
321.84
322.328
322.763
323.147
323.477
323.753
323.973
324.136
324.24
324.284
324.266
324.184
324.037
323.822
323.539
323.184
322.757
322.256
321.678
321.022
320.284
319.463
318.554
317.552
316.45
315.24
313.909
312.439
310.803
308.964
306.868
304.439
301.603
301.674
304.648
307.205
309.421
311.37
313.11
314.683
316.118
317.438
318.658
319.789
320.84
321.818
322.726
323.568
324.346
325.061
325.714
326.305
326.833
327.298
327.698
328.033
328.3
328.498
328.625
328.678
328.656
328.557
328.379
328.119
327.775
327.346
326.828
326.221
325.522
324.727
323.835
322.842
321.743
320.533
319.206
317.75
316.153
314.396
312.451
310.28
307.828
305.026
301.8
301.827
305.104
307.957
310.455
312.672
314.665
316.477
318.136
319.667
321.085
322.402
323.628
324.768
325.829
326.813
327.723
328.559
329.323
330.015
330.633
331.178
331.647
332.039
332.352
332.584
332.732
332.795
332.77
332.654
332.445
332.141
331.739
331.237
330.632
329.922
329.104
328.176
327.134
325.974
324.693
323.284
321.74
320.05
318.201
316.173
313.94
311.462
308.688
305.548
301.976
301.964
305.512
308.629
311.384
313.848
316.076
318.11
319.98
321.711
323.317
324.811
326.204
327.502
328.709
329.83
330.867
331.821
332.692
333.482
334.187
334.809
335.345
335.792
336.15
336.415
336.584
336.656
336.628
336.496
336.258
335.911
335.453
334.88
334.191
333.381
332.45
331.392
330.206
328.887
327.431
325.831
324.081
322.169
320.081
317.8
315.297
312.536
309.465
306.019
302.133
302.087
305.88
309.237
312.226
314.916
317.361
319.603
321.672
323.59
325.374
327.038
328.589
330.037
331.385
332.637
333.796
334.863
335.838
336.721
337.511
338.207
338.807
339.308
339.709
340.006
340.196
340.277
340.245
340.098
339.832
339.444
338.932
338.292
337.521
336.616
335.575
334.394
333.07
331.599
329.976
328.194
326.248
324.126
321.814
319.295
316.541
313.518
310.175
306.448
302.277
302.198
306.213
309.79
312.993
315.891
318.537
320.972
323.226
325.32
327.273
329.096
330.798
332.388
333.87
335.248
336.523
337.698
338.772
339.745
340.616
341.383
342.045
342.598
343.04
343.367
343.578
343.667
343.633
343.471
343.178
342.751
342.187
341.482
340.633
339.638
338.492
337.194
335.738
334.122
332.341
330.388
328.256
325.936
323.414
320.673
317.686
314.42
310.826
306.841
302.409
302.3
306.517
310.294
313.694
316.783
319.615
322.229
324.655
326.915
329.025
330.997
332.843
334.567
336.176
337.672
339.058
340.336
341.504
342.563
343.511
344.346
345.066
345.669
346.15
346.507
346.737
346.835
346.798
346.622
346.304
345.84
345.226
344.46
343.537
342.455
341.211
339.801
338.221
336.468
334.537
332.422
330.117
327.611
324.893
321.944
318.741
315.25
311.424
307.202
302.529
302.392
306.795
310.755
314.334
317.599
320.602
323.382
325.968
328.381
330.638
332.752
334.73
336.581
338.309
339.917
341.408
342.783
344.04
345.18
346.201
347.101
347.877
348.526
349.045
349.43
349.678
349.784
349.745
349.556
349.214
348.715
348.055
347.23
346.238
345.075
343.737
342.221
340.524
338.643
336.571
334.305
331.837
329.158
326.257
323.116
319.712
316.013
311.973
307.534
302.64
302.477
307.048
311.174
314.918
318.345
321.505
324.438
327.171
329.727
332.121
334.365
336.468
338.437
340.276
341.99
343.579
345.044
346.386
347.602
348.692
349.652
350.481
351.174
351.729
352.14
352.405
352.519
352.477
352.276
351.912
351.38
350.676
349.797
348.74
347.5
346.075
344.461
342.654
340.652
338.45
336.042
333.423
330.584
327.512
324.194
320.605
316.714
312.478
307.838
302.742
302.554
307.278
311.556
315.45
319.024
322.328
325.401
328.271
330.957
333.477
335.842
338.061
340.139
342.083
343.894
345.574
347.124
348.544
349.832
350.985
352.003
352.881
353.615
354.203
354.639
354.92
355.041
354.998
354.786
354.401
353.838
353.094
352.164
351.046
349.735
348.228
346.523
344.615
342.501
340.177
337.638
334.879
331.891
328.664
325.181
321.422
317.356
312.94
308.116
302.835
302.623
307.486
311.903
315.933
319.64
323.076
326.276
329.27
332.076
334.712
337.188
339.512
341.692
343.731
345.632
347.397
349.026
350.518
351.871
353.085
354.155
355.078
355.851
356.47
356.929
357.225
357.353
357.308
357.086
356.681
356.09
355.309
354.332
353.158
351.781
350.199
348.409
346.407
344.191
341.755
339.096
336.209
333.085
329.714
326.082
322.167
317.941
313.36
308.37
302.919
302.686
307.674
312.215
316.367
320.196
323.749
327.066
330.172
333.087
335.828
338.405
340.826
343.098
345.224
347.208
349.05
350.75
352.309
353.723
354.991
356.11
357.075
357.883
358.53
359.011
359.321
359.455
359.409
359.177
358.755
358.138
357.322
356.303
355.077
353.64
351.99
350.122
348.035
345.724
343.187
340.418
337.414
334.166
330.665
326.897
322.841
318.47
313.74
308.599
302.996
302.742
307.841
312.493
316.756
320.692
324.352
327.772
330.979
333.992
336.828
339.495
342.004
344.359
346.564
348.622
350.535
352.3
353.919
355.388
356.706
357.868
358.872
359.712
360.385
360.885
361.208
361.348
361.3
361.06
360.622
359.981
359.134
358.076
356.804
355.313
353.6
351.663
349.498
347.103
344.473
341.606
338.496
335.137
331.518
327.628
323.446
318.944
314.081
308.804
303.065
302.791
307.989
312.739
317.099
321.131
324.885
328.397
331.693
334.794
337.713
340.462
343.048
345.477
347.753
349.878
351.852
353.676
355.349
356.867
358.229
359.431
360.469
361.338
362.034
362.551
362.885
363.031
362.982
362.734
362.282
361.621
360.746
359.653
358.339
356.799
355.031
353.032
350.798
348.327
345.616
342.66
339.457
335.998
332.276
328.277
323.982
319.364
314.384
308.987
303.126
302.834
308.118
312.953
317.397
321.513
325.349
328.941
332.316
335.492
338.485
341.305
343.959
346.453
348.791
350.974
353.004
354.879
356.599
358.161
359.562
360.798
361.866
362.761
363.477
364.01
364.354
364.504
364.455
364.2
363.735
363.056
362.157
361.034
359.683
358.101
356.284
354.23
351.935
349.398
346.615
343.582
340.296
336.751
332.937
328.843
324.451
319.732
314.648
309.146
303.179
302.871
308.228
313.136
317.653
321.839
325.745
329.406
332.848
336.089
339.145
342.026
344.739
347.289
349.68
351.914
353.99
355.91
357.67
359.269
360.704
361.971
363.064
363.981
364.715
365.261
365.614
365.768
365.718
365.458
364.982
364.287
363.367
362.218
360.835
359.216
357.358
355.256
352.91
350.315
347.47
344.372
341.015
337.395
333.504
329.328
324.851
320.046
314.873
309.282
303.224
302.902
308.32
313.288
317.865
322.111
326.075
329.793
333.29
336.586
339.695
342.626
345.388
347.984
350.42
352.695
354.812
356.768
358.563
360.193
361.656
362.948
364.063
364.998
365.747
366.304
366.664
366.822
366.771
366.506
366.022
365.313
364.376
363.205
361.796
360.146
358.253
356.112
353.722
351.08
348.184
345.03
341.614
337.932
333.975
329.732
325.185
320.308
315.062
309.395
303.262
302.926
308.393
313.41
318.034
322.327
326.338
330.101
333.643
336.983
340.133
343.105
345.906
348.54
351.011
353.321
355.469
357.455
359.277
360.932
362.418
363.729
364.862
365.812
366.573
367.139
367.505
367.665
367.614
367.345
366.854
366.135
365.183
363.995
362.565
360.891
358.969
356.797
354.372
351.692
348.754
345.556
342.093
338.362
334.353
330.055
325.452
320.517
315.212
309.486
303.292
302.944
308.447
313.5
318.16
322.489
326.535
330.332
333.908
337.28
340.462
343.465
346.295
348.957
351.455
353.789
355.961
357.969
359.812
361.486
362.989
364.316
365.462
366.423
367.192
367.765
368.136
368.298
368.247
367.975
367.478
366.751
365.789
364.587
363.142
361.449
359.506
357.311
354.86
352.151
349.182
345.951
342.453
338.684
334.636
330.298
325.652
320.674
315.325
309.553
303.315
302.956
308.484
313.561
318.245
322.597
326.666
330.486
334.084
337.478
340.681
343.704
346.553
349.235
351.75
354.102
356.289
358.313
360.169
361.856
363.37
364.707
365.862
366.83
367.606
368.183
368.557
368.72
368.668
368.395
367.895
367.162
366.193
364.983
363.527
361.822
359.865
357.653
355.185
352.457
349.467
346.214
342.692
338.898
334.824
330.459
325.786
320.778
315.4
309.599
303.33
302.962