/*--------------------------------*- C++ -*----------------------------------*\
| =========                 |                                                 |
| \\      /  F ield         | OpenFOAM: The Open Source CFD Toolbox           |
|  \\    /   O peration     | Version:  5.x                                   |
|   \\  /    A nd           | Web:      www.OpenFOAM.org                      |
|    \\/     M anipulation  |                                                 |
\*---------------------------------------------------------------------------*/
FoamFile
{
    version     2.0;
    format      ascii;
    class       volScalarField;
    location    "0.4";
    object      gradTy;
}
// * * * * * * * * * * * * * * * * * * * * * * * * * * * * * * * * * * * * * //

dimensions      [0 -1 0 1 0 0 0];

internalField   nonuniform List<scalar> 
25000
(
4975.49
9903.48
12895.6
14993.2
16617.5
17970.5
19163.4
20264.6
21320.1
22362.3
23415.1
24496.3
25619.4
26794.1
28026.7
29321.1
30678.2
32096.2
33571.3
35096.9
36664.2
38262
39877
41493.7
43094.6
44660.4
46169.6
47599.6
48926
50123.3
51164.9
52023.6
52671.9
53082.1
53227
53080.7
52618.3
51817.4
50657.7
49122.1
47196.4
44869.1
42130.4
38969.8
35371.6
31304.9
26703.4
21416.5
15079.4
6711.43
2255.24
5653.29
8136.21
10033.5
11567.1
12874.4
14043
15131.4
16180.7
17220.9
18274.8
19359.3
20487.5
21668.7
22909.3
24212.7
25579.8
27008.9
28495.9
30034.2
31614.9
33226.6
34856
36487.5
38103.4
39684
41208
42652.4
43992.5
45202.8
46256.2
47125.5
47782.7
48199.9
48349.9
48206.3
47744.3
46941.1
45776.7
44234.1
42299.4
39961.9
37213.4
34045.8
30448.3
26400.5
21860.3
16742
10880.8
4008.51
1337.76
3716.92
5694.54
7337.35
8736.8
9970.46
11097.8
12163.6
13202
14239.1
15295.3
16386.5
17524.7
18718.8
19974.7
21295.7
22682.5
24133.1
25643.3
27206.3
28813.1
30452.1
32109.6
33769.9
35414.8
37024.6
38577.4
40049.8
41416.9
42652.4
43729
44618.8
45293.4
45724.6
45884.4
45746.1
45284.7
44477.2
43303.6
41747.1
39794.6
37436.8
34667.8
31483.8
27881.7
23855.5
19391.9
14466.2
9045.29
3124.86
937.2
2714.1
4309.07
5720.76
6981.87
8132.74
9211.15
10249.5
11274.5
12308.3
13368.6
14469.5
15622.2
16834.8
18112.9
19459.2
20874.1
22355.7
23899.2
25497.8
27142
28820.1
30518.1
32219.7
33906.6
35558.3
37152.6
38665.4
40071.1
41343
42453.1
43372.5
44072.4
44523.5
44697.6
44567.2
44106.7
43293
42106
40529.3
38550.6
36162.3
33361.4
30149
26529.8
22511.4
18103.3
13319.6
8187.7
2773.03
724.287
2134.32
3458.02
4683.52
5821.6
6893.37
7922.73
8932.81
9944.43
10975.7
12041.9
13155.5
14326.6
15562.5
16868.2
18246.1
19696.4
21216.6
22801.8
24444.9
26136
27863.1
29611.8
31365.3
33104.7
34809.1
36455.4
38019
39473.4
40791.1
41943.2
42900.1
43631.8
44108.3
44300.4
44180
43720.9
42899.5
41695.6
40093.1
38080.7
35652.6
32808.4
29554
25900.9
21867.2
17478.2
12768.8
7790.41
2621.34
595.699
1770.15
2903.06
3985.6
5022.03
6024.62
7009.41
7993.41
8993.01
10023.2
11097.1
12225.8
13418.1
14680.8
16018.2
17432.4
18923.1
20487.6
22120.6
23814.7
25559.8
27343.2
29150.1
30963.3
32763.2
34528.2
36234.5
37856.6
39367.4
40738.1
41938.8
42939
43707.7
44213.8
44427.1
44318.5
43861.2
43031.1
41807.7
40175.3
38123.3
35647.4
32750
29440.5
25736.4
21663.2
17255.8
12560.3
7636.83
2563.41
511.622
1527.48
2524.73
3499.42
4454.95
5400.07
6346.71
7308.19
8297.91
9328.54
10411.5
11556.6
12771.8
14063.1
15434.4
16887.3
18421.3
20033.1
21717.5
23466.3
25269.2
27113.1
28982.7
30860.1
32725.1
34555.5
36326.6
38012.1
39583.7
41011.8
42265.4
43312.9
44121.9
44660.4
44897
44801.8
44347
43507.8
42263.7
40598.9
38503.6
35974.7
33016.7
29642.3
25873
21739.8
17283.6
12556.4
7621.81
2555.72
453.701
1358.64
2257.73
3151.21
4043.38
4941.96
5856.97
6799.64
7781.46
8813.51
9905.95
11067.6
12305.7
13625.6
15030.8
16522.5
18099.9
19759.4
21495.3
23299.3
25160.5
27065.5
28998.5
30941
32872.3
34769.1
36606.2
38356.2
39990
41476.9
42784.8
43880.8
44731.5
45303.8
45565
45484.1
45032.7
44185.1
42920.5
41223.1
39083.6
36499.9
33478.1
30033.6
26190.8
21984.5
17459.5
12671.2
7685.1
2575.69
412.175
1236.88
2063.4
2895.08
3737.56
4598.58
5487.41
6414.21
7389.32
8422.79
9523.86
10700.6
11959.7
13306.1
14742.8
16270.7
17888.6
19592.8
21377.2
23233.3
25149.7
27112.6
29105.8
31110.3
33104.6
35064.9
36965.2
38777.2
40470.9
42014.6
43375.1
44518.4
45410
46015.6
46301.5
46235.7
45788.7
44934.5
43651.5
41923.9
39742.7
37106.7
34023.2
30509.4
26592
22308.5
17706.5
12843.5
7786.23
2608.95
381.242
1145.82
1917.07
2700.59
3503.28
4333.3
5199.74
6112.27
7080.59
8114.07
9221.36
10410
11686.2
13054.5
14517.6
16076.3
17728.9
19471.5
21297.9
23199
25163.5
27177.2
29223.2
31282.2
33332.2
35348.9
37305.4
39172.8
40920.3
42515.2
43923.4
45110
46039.3
46676.2
46985.8
46935.3
46494.3
45636.1
44338.8
42586.4
40370
37688.9
34551.6
30976.2
26991.5
22636.8
17961.4
13024.7
7894.33
2644.85
357.135
1074.62
1801.97
2546.39
3315.81
4118.88
4964.8
5863
6822.86
7853.35
8962.67
10158
11445.2
12828.5
14310.4
15891.3
17569.6
19341
21199.1
23134.8
25136.3
27189.2
29276.4
31378.3
33472.4
35533.9
37535.5
39447.6
41238.8
42875.7
44323.5
45546.4
46508.1
47172.2
47503.4
47467.9
47034.8
46176.7
44871.3
43102.5
40861.4
38147.7
34970.4
31348.8
27312.8
22902.7
18169.6
13173.8
7983.82
2674.67
337.241
1015.68
1706.09
2416.79
3156.51
3934.32
4759.57
5641.64
6589.69
7612.42
8717.75
9912.57
11202.4
12591.4
14081.7
15673.7
17365.4
19152.7
21028.8
22984.6
25008.1
27084.9
29197.6
31326.4
33448.7
35539.3
37570.7
39512.9
41334
43000.2
44476.2
45725.7
46711.7
47397.4
47746.9
47725.9
47302.8
46450.1
45144.9
43371.2
41120
38391.2
35194.3
31549.1
27486.2
23046.8
18282.7
13254.9
8032.59
2690.93
319.651
963.377
1620.43
2299.87
3010.93
3763.02
4565.58
5427.94
6359.14
7367.65
8461.16
9646.3
10928.4
12311.4
13797.4
15386.4
17076.5
18863.5
20740.6
22698.5
24725.5
26806.9
28925.6
31061.5
33192
35292.1
37333.9
39287.7
41121.2
42800.6
44290.4
45554
46554.4
47254.4
47617.9
47610.3
47199.8
46358.8
45064.3
43300.1
41057.3
38335.9
35145.6
31506.5
27449.3
23015.8
18257.8
13236.6
8021.36
2687.14
302.931
913.488
1538.15
2186.39
2867.74
3591.74
4367.86
5205.35
6113.08
7099.3
8171.47
9336.01
10598.1
11961.3
13427.8
14997.4
16668.2
18436
20294.1
22233.2
24241.8
26305.2
28406.6
30526.2
32641.6
34727.8
36757.4
38700.8
40526
42199.5
43685.8
44948.8
45951.4
46656.9
47028.9
47033.4
46638.5
45816.6
44545
42807.5
40595.2
37908.2
34756.1
31159.1
27147.7
22763.4
18057.8
13091.7
7933.55
2657.73
285.989
862.77
1453.96
2069.18
2718.02
3409.99
4154.47
4960.52
5836.77
6791.24
7831.12
8962.59
10190.6
11518.6
12948.5
14480.3
16112
17839.3
19655.8
21552.5
23517.9
25538
27596.1
29672.9
31746.6
33792.7
35784.4
37692.6
39486.1
41131.8
42595.3
43840.7
44831.8
45532.4
45907
45921.8
45545.6
44751.2
43516.3
41824.8
39668.2
37046.4
33968.9
30455.3
26535.9
22251.3
17652
12797.7
7755.5
2598.09
268.001
808.775
1363.86
1942.77
2554.94
3209.7
3916.13
4683.04
5518.72
6430.87
7426.36
8511.09
9689.76
10965.7
12340.6
13814.5
15385.4
17049.2
18799.7
20628.3
22523.9
24473
26459.5
28464.8
30468
32445.3
34371.1
36217.1
37953.3
39547.7
40966.8
42176.2
43140.7
43825.3
44195.5
44218.6
43864.5
43106.6
41923.4
40299.2
38225.7
35702.8
32739.7
29355.3
25579
21449.8
17016.8
12337.5
7476.7
2504.72
248.367
749.722
1264.93
1803.16
2373.52
2984.93
3646.08
4365.34
5150.57
6009.07
6947.31
7970.85
9084.11
10290.2
11590.7
12985.7
14473.1
16049.3
17708.2
19441.7
21239.4
23088.4
24973.6
26877.3
28779.6
30658.2
32488.6
34244
35895.8
37413.8
38766.1
39919.9
40841.8
41498.4
41856.9
41886.2
41557.6
40845.6
39729.8
38195.3
36233.9
33845.7
31039.3
27832.6
24253.5
20339.3
16136.4
11699.5
7090.16
2375.24
226.686
684.417
1155.21
1647.71
2170.45
2731.81
3339.92
4002.56
4727.08
5520.22
6388
7335.56
8366.98
9485.14
10691.5
11986.1
13367.1
14831
16372.3
17983.4
19654.6
21374.1
23127.6
24899
26669.7
28418.8
30123.7
31759.4
33299.4
34715.4
35977.8
37056.1
37919
38535.4
38874.7
38907.9
38608.1
37951.7
36919.4
35497.2
33677.7
31460.7
28854.1
25874.9
22548.8
18910.5
15003.4
10878.3
6592.61
2208.58
202.736
612.205
1033.65
1474.98
1944.02
2448.4
2995.54
3592.52
4246.01
4962.13
5746.34
6603.28
7536.66
8549.08
9641.87
10815
12066.9
13394.3
14792.3
16254
17770.6
19331.4
20923.6
22532.4
24140.9
25730.3
27280.1
28767.5
30168.5
31457.3
32607
33589.9
34377.6
34941.6
35254.3
35289
35021.4
34429.8
33496.8
32209.5
30561.1
28551.5
26187.7
23485.2
20467.2
17165.5
13619.3
9875.02
5984.7
2004.94
176.456
532.913
899.988
1284.7
1693.96
2134.54
2612.97
3135.52
3708.06
4335.97
5024.06
5776.42
6596.3
7485.97
8446.64
9478.25
10579.4
11747.4
12977.6
14264.3
15599.5
16974
18376.4
19793.7
21211.1
22612.1
23978.4
25290.2
26526.2
27663.7
28679.1
29547.7
30244.5
30744.6
31023.4
31057.4
30825
30307.3
29488.5
28357.6
26908.3
25140.5
23060.5
20681.7
18024.8
15117.6
11994.9
8697.34
5271.05
1765.87
147.933
446.813
754.722
1077.62
1421.39
1791.76
2194.28
2634.26
3116.67
3646.07
4226.51
4861.46
5553.67
6305.06
7116.63
7988.37
8919.1
9906.43
10946.7
12034.8
13164.2
14327
15513.6
16713
17912.8
19098.9
20255.9
21367
22414.3
23378.4
24239.3
24976.3
25568.1
25993.5
26231.7
26262.8
26068.5
25632.7
24942.1
23987.1
22762.6
21268.3
19509.6
17497.9
15250.6
12791.2
10149.2
7359.23
4460.14
1494.21
117.384
354.569
598.993
855.434
1128.6
1423.08
1743.33
2093.58
2477.8
2899.65
3362.36
3868.69
4420.85
5020.37
5668.06
6363.89
7106.94
7895.31
8726.05
9595.12
10497.3
11426.3
12374.4
13333
14291.9
15240.1
16165.2
17053.8
17891.4
18662.8
19351.9
19942
20416.2
20757.6
20949.4
20975.8
20822
20475.1
19924.7
19162.8
18185.5
16992.4
15587.9
13981
12185.7
10220.9
8109.96
5880.63
3564.05
1194.02
85.138
257.18
434.511
620.62
818.945
1032.84
1265.55
1520.16
1799.58
2106.45
2443.16
2811.7
3213.67
3650.21
4121.9
4628.71
5169.99
5744.35
6349.65
6982.94
7640.43
8317.5
9008.62
9707.4
10406.5
11097.9
11772.6
12420.7
13031.7
13594.5
14097.5
14528.3
14874.7
15124.3
15264.9
15284.9
15173.6
14921.6
14521
13966.3
13254.5
12385.3
11362
10191
8882.55
7450.45
5911.79
4286.76
2598.08
870.404
51.6132
155.915
263.438
376.307
496.616
626.405
767.649
922.228
1091.91
1278.3
1482.85
1706.78
1951.05
2216.36
2503.07
2811.15
3140.21
3489.41
3857.44
4242.52
4642.34
5054.09
5474.42
5899.43
6324.7
6745.28
7155.7
7550.02
7921.85
8264.38
8570.49
8832.79
9043.77
9195.87
9281.7
9294.19
9226.8
9073.8
8830.47
8493.39
8060.68
7532.26
6910.01
6197.95
5402.27
4531.34
3595.57
2607.24
1580.18
529.39
17.294
52.2434
88.2744
126.101
166.426
209.935
257.291
309.124
366.028
428.544
497.156
572.273
654.222
743.233
839.425
942.795
1053.21
1170.38
1293.88
1423.1
1557.27
1695.46
1836.52
1979.16
2121.89
2263.05
2400.81
2533.16
2657.97
2772.96
2875.72
2963.79
3034.63
3085.72
3114.57
3118.8
3096.22
3044.92
2963.29
2850.2
2705.01
2527.7
2318.89
2079.95
1812.93
1520.67
1206.64
874.965
530.295
177.66
-17.2945
-52.2446
-88.2761
-126.103
-166.427
-209.934
-257.286
-309.115
-366.013
-428.523
-497.127
-572.236
-654.176
-743.177
-839.36
-942.721
-1053.12
-1170.29
-1293.78
-1422.99
-1557.16
-1695.34
-1836.4
-1979.04
-2121.77
-2262.94
-2400.7
-2533.07
-2657.9
-2772.9
-2875.69
-2963.79
-3034.66
-3085.78
-3114.66
-3118.93
-3096.4
-3045.13
-2963.54
-2850.48
-2705.31
-2528.02
-2319.22
-2080.27
-1813.23
-1520.93
-1206.85
-875.12
-530.387
-177.69
-51.6138
-155.917
-263.44
-376.31
-496.617
-626.405
-767.645
-922.221
-1091.89
-1278.28
-1482.82
-1706.74
-1951.01
-2216.31
-2503
-2811.08
-3140.13
-3489.32
-3857.34
-4242.41
-4642.23
-5053.98
-5474.31
-5899.32
-6324.59
-6745.17
-7155.6
-7549.94
-7921.78
-8264.33
-8570.46
-8832.79
-9043.8
-9195.93
-9281.8
-9294.32
-9226.98
-9074.01
-8830.71
-8493.66
-8060.97
-7532.57
-6910.33
-6198.26
-5402.56
-4531.59
-3595.78
-2607.39
-1580.27
-529.42
-85.1388
-257.182
-434.514
-620.623
-818.948
-1032.84
-1265.55
-1520.16
-1799.57
-2106.44
-2443.13
-2811.67
-3213.64
-3650.16
-4121.84
-4628.65
-5169.92
-5744.27
-6349.56
-6982.84
-7640.33
-8317.4
-9008.52
-9707.29
-10406.4
-11097.8
-11772.5
-12420.6
-13031.6
-13594.5
-14097.4
-14528.3
-14874.7
-15124.4
-15265
-15285.1
-15173.8
-14921.8
-14521.2
-13966.6
-13254.8
-12385.6
-11362.3
-10191.3
-8882.83
-7450.69
-5911.99
-4286.91
-2598.17
-870.432
-117.385
-354.572
-598.997
-855.44
-1128.61
-1423.09
-1743.33
-2093.58
-2477.8
-2899.64
-3362.34
-3868.67
-4420.82
-5020.34
-5668.01
-6363.83
-7106.88
-7895.24
-8725.97
-9595.04
-10497.2
-11426.2
-12374.3
-13332.9
-14291.8
-15240
-16165.1
-17053.7
-17891.3
-18662.8
-19351.9
-19942
-20416.3
-20757.7
-20949.5
-20975.9
-20822.1
-20475.3
-19924.9
-19163.1
-18185.7
-16992.7
-15588.2
-13981.3
-12186
-10221.1
-8110.15
-5880.77
-3564.13
-1194.04
-147.934
-446.817
-754.728
-1077.63
-1421.4
-1791.77
-2194.29
-2634.27
-3116.67
-3646.06
-4226.51
-4861.45
-5553.65
-6305.03
-7116.6
-7988.33
-8919.05
-9906.38
-10946.6
-12034.7
-13164.1
-14326.9
-15513.5
-16712.9
-17912.7
-19098.8
-20255.9
-21367
-22414.2
-23378.3
-24239.3
-24976.3
-25568.1
-25993.5
-26231.8
-26262.9
-26068.7
-25632.9
-24942.3
-23987.3
-22762.8
-21268.6
-19509.9
-17498.1
-15250.8
-12791.4
-10149.4
-7359.36
-4460.21
-1494.24
-176.457
-532.917
-899.996
-1284.71
-1693.97
-2134.55
-2612.99
-3135.53
-3708.06
-4335.97
-5024.06
-5776.42
-6596.29
-7485.96
-8446.62
-9478.23
-10579.4
-11747.3
-12977.6
-14264.2
-15599.5
-16973.9
-18376.3
-19793.6
-21211.1
-22612.1
-23978.4
-25290.2
-26526.2
-27663.7
-28679.1
-29547.7
-30244.6
-30744.7
-31023.4
-31057.5
-30825.1
-30307.4
-29488.7
-28357.8
-26908.5
-25140.7
-23060.7
-20682
-18025
-15117.8
-11995
-8697.45
-5271.11
-1765.89
-202.738
-612.21
-1033.66
-1474.99
-1944.03
-2448.42
-2995.55
-3592.54
-4246.02
-4962.14
-5746.35
-6603.29
-7536.67
-8549.08
-9641.86
-10815
-12066.9
-13394.3
-14792.3
-16254
-17770.6
-19331.4
-20923.6
-22532.3
-24140.8
-25730.3
-27280
-28767.5
-30168.5
-31457.3
-32607
-33589.9
-34377.6
-34941.7
-35254.4
-35289.1
-35021.5
-34430
-33496.9
-32209.7
-30561.3
-28551.6
-26187.9
-23485.4
-20467.4
-17165.7
-13619.5
-9875.11
-5984.75
-2004.96
-226.688
-684.424
-1155.22
-1647.72
-2170.47
-2731.83
-3339.94
-4002.59
-4727.1
-5520.24
-6388.02
-7335.58
-8367
-9485.16
-10691.5
-11986.1
-13367.1
-14831
-16372.3
-17983.4
-19654.6
-21374.1
-23127.6
-24899
-26669.7
-28418.8
-30123.7
-31759.4
-33299.4
-34715.4
-35977.9
-37056.1
-37919
-38535.4
-38874.8
-38908
-38608.2
-37951.8
-36919.5
-35497.3
-33677.8
-31460.8
-28854.3
-25875.1
-22548.9
-18910.6
-15003.5
-10878.3
-6592.65
-2208.59
-248.369
-749.73
-1264.94
-1803.18
-2373.54
-2984.95
-3646.11
-4365.37
-5150.61
-6009.1
-6947.34
-7970.88
-9084.14
-10290.2
-11590.8
-12985.7
-14473.2
-16049.3
-17708.2
-19441.8
-21239.4
-23088.4
-24973.6
-26877.3
-28779.7
-30658.3
-32488.6
-34244
-35895.8
-37413.8
-38766.1
-39919.9
-40841.8
-41498.4
-41857
-41886.3
-41557.6
-40845.7
-39729.9
-38195.4
-36234
-33845.8
-31039.4
-27832.7
-24253.6
-20339.4
-16136.4
-11699.5
-7090.19
-2375.25
-268.004
-808.784
-1363.88
-1942.79
-2554.97
-3209.73
-3916.17
-4683.08
-5518.76
-6430.91
-7426.4
-8511.13
-9689.81
-10965.7
-12340.7
-13814.5
-15385.4
-17049.3
-18799.8
-20628.4
-22523.9
-24473
-26459.5
-28464.9
-30468
-32445.4
-34371.1
-36217.2
-37953.3
-39547.7
-40966.9
-42176.2
-43140.8
-43825.3
-44195.5
-44218.7
-43864.5
-43106.7
-41923.4
-40299.2
-38225.7
-35702.9
-32739.8
-29355.4
-25579
-21449.9
-17016.9
-12337.5
-7476.72
-2504.72
-285.992
-862.78
-1453.98
-2069.2
-2718.05
-3410.03
-4154.51
-4960.56
-5836.81
-6791.28
-7831.17
-8962.64
-10190.6
-11518.7
-12948.6
-14480.4
-16112
-17839.4
-19655.9
-21552.5
-23518
-25538.1
-27596.2
-29673
-31746.6
-33792.7
-35784.4
-37692.6
-39486.1
-41131.9
-42595.3
-43840.7
-44831.9
-45532.5
-45907
-45921.8
-45545.6
-44751.2
-43516.3
-41824.9
-39668.2
-37046.4
-33968.9
-30455.3
-26535.9
-22251.3
-17652.1
-12797.8
-7755.51
-2598.1
-302.935
-913.498
-1538.17
-2186.41
-2867.77
-3591.77
-4367.9
-5205.4
-6113.13
-7099.35
-8171.52
-9336.07
-10598.1
-11961.4
-13427.8
-14997.5
-16668.3
-18436.1
-20294.1
-22233.3
-24241.8
-26305.3
-28406.7
-30526.3
-32641.6
-34727.8
-36757.5
-38700.8
-40526.1
-42199.5
-43685.9
-44948.9
-45951.5
-46656.9
-47029
-47033.4
-46638.5
-45816.6
-44545
-42807.5
-40595.2
-37908.2
-34756.1
-31159
-27147.7
-22763.4
-18057.8
-13091.7
-7933.55
-2657.73
-319.654
-963.387
-1620.45
-2299.89
-3010.96
-3763.06
-4565.62
-5427.99
-6359.19
-7367.71
-8461.22
-9646.37
-10928.5
-12311.5
-13797.4
-15386.4
-17076.6
-18863.5
-20740.6
-22698.6
-24725.6
-26807
-28925.7
-31061.6
-33192.1
-35292.1
-37334
-39287.8
-41121.3
-42800.7
-44290.4
-45554.1
-46554.4
-47254.4
-47617.9
-47610.3
-47199.8
-46358.8
-45064.3
-43300
-41057.3
-38335.9
-35145.6
-31506.4
-27449.2
-23015.7
-18257.8
-13236.6
-8021.34
-2687.14
-337.244
-1015.69
-1706.1
-2416.81
-3156.54
-3934.36
-4759.61
-5641.68
-6589.74
-7612.48
-8717.81
-9912.63
-11202.5
-12591.5
-14081.8
-15673.8
-17365.5
-19152.8
-21028.9
-22984.6
-25008.2
-27085
-29197.7
-31326.5
-33448.8
-35539.4
-37570.8
-39513
-41334
-43000.2
-44476.2
-45725.7
-46711.7
-47397.4
-47746.9
-47725.9
-47302.8
-46450
-45144.9
-43371.1
-41119.9
-38391.1
-35194.2
-31549
-27486.1
-23046.7
-18282.6
-13254.9
-8032.57
-2690.93
-357.138
-1074.63
-1801.99
-2546.41
-3315.83
-4118.91
-4964.83
-5863.04
-6822.91
-7853.4
-8962.72
-10158.1
-11445.3
-12828.6
-14310.5
-15891.4
-17569.6
-19341.1
-21199.2
-23134.9
-25136.3
-27189.3
-29276.5
-31378.4
-33472.5
-35534
-37535.5
-39447.7
-41238.9
-42875.8
-44323.6
-45546.5
-46508.1
-47172.2
-47503.4
-47467.9
-47034.7
-46176.6
-44871.2
-43102.4
-40861.3
-38147.6
-34970.3
-31348.7
-27312.7
-22902.7
-18169.6
-13173.7
-7983.79
-2674.66
-381.244
-1145.83
-1917.08
-2700.6
-3503.3
-4333.32
-5199.77
-6112.3
-7080.63
-8114.12
-9221.41
-10410.1
-11686.3
-13054.6
-14517.7
-16076.3
-17728.9
-19471.6
-21298
-23199.1
-25163.6
-27177.3
-29223.3
-31282.3
-33332.3
-35348.9
-37305.5
-39172.9
-40920.4
-42515.2
-43923.4
-45110
-46039.4
-46676.1
-46985.8
-46935.2
-46494.2
-45636
-44338.7
-42586.3
-40369.9
-37688.8
-34551.4
-30976.1
-26991.4
-22636.7
-17961.3
-13024.6
-7894.3
-2644.84
-412.177
-1236.88
-2063.41
-2895.09
-3737.57
-4598.59
-5487.43
-6414.23
-7389.35
-8422.82
-9523.9
-10700.7
-11959.8
-13306.1
-14742.8
-16270.8
-17888.7
-19592.9
-21377.3
-23233.3
-25149.7
-27112.7
-29105.9
-31110.4
-33104.7
-35065
-36965.2
-38777.3
-40471
-42014.6
-43375.1
-44518.4
-45410
-46015.6
-46301.5
-46235.7
-45788.7
-44934.4
-43651.4
-41923.8
-39742.6
-37106.5
-34023.1
-30509.2
-26591.9
-22308.4
-17706.4
-12843.4
-7786.19
-2608.94
-453.701
-1358.64
-2257.73
-3151.21
-4043.38
-4941.97
-5856.98
-6799.65
-7781.47
-8813.53
-9905.97
-11067.6
-12305.7
-13625.6
-15030.8
-16522.6
-18099.9
-19759.4
-21495.3
-23299.3
-25160.6
-27065.6
-28998.6
-30941.1
-32872.3
-34769.1
-36606.2
-38356.3
-39990.1
-41476.9
-42784.8
-43880.8
-44731.5
-45303.7
-45564.9
-45484.1
-45032.6
-44185
-42920.4
-41223
-39083.4
-36499.7
-33478
-30033.4
-26190.6
-21984.3
-17459.4
-12671.1
-7685.05
-2575.67
-511.62
-1527.48
-2524.72
-3499.41
-4454.94
-5400.06
-6346.7
-7308.18
-8297.9
-9328.53
-10411.5
-11556.6
-12771.8
-14063.1
-15434.4
-16887.3
-18421.3
-20033.2
-21717.5
-23466.3
-25269.2
-27113.1
-28982.7
-30860.1
-32725.2
-34555.5
-36326.7
-38012.1
-39583.7
-41011.8
-42265.4
-43312.8
-44121.8
-44660.3
-44896.9
-44801.7
-44346.9
-43507.7
-42263.6
-40598.7
-38503.4
-35974.5
-33016.5
-29642.1
-25872.8
-21739.6
-17283.5
-12556.3
-7621.75
-2555.7
-595.696
-1770.14
-2903.04
-3985.58
-5022.01
-6024.6
-7009.39
-7993.38
-8992.99
-10023.2
-11097.1
-12225.7
-13418.1
-14680.8
-16018.2
-17432.4
-18923.1
-20487.6
-22120.7
-23814.7
-25559.8
-27343.2
-29150.1
-30963.3
-32763.2
-34528.2
-36234.5
-37856.7
-39367.4
-40738
-41938.8
-42939
-43707.6
-44213.7
-44427
-44318.4
-43861.1
-43030.9
-41807.6
-40175.1
-38123.1
-35647.2
-32749.8
-29440.3
-25736.2
-21663
-17255.7
-12560.2
-7636.76
-2563.39
-724.282
-2134.3
-3458
-4683.48
-5821.56
-6893.33
-7922.68
-8932.76
-9944.38
-10975.6
-12041.8
-13155.5
-14326.5
-15562.5
-16868.1
-18246.1
-19696.4
-21216.6
-22801.8
-24444.9
-26136
-27863.1
-29611.8
-31365.3
-33104.7
-34809
-36455.4
-38018.9
-39473.4
-40791.1
-41943.2
-42900
-43631.7
-44108.2
-44300.3
-44179.9
-43720.8
-42899.3
-41695.4
-40092.9
-38080.5
-35652.4
-32808.2
-29553.7
-25900.7
-21867.1
-17478
-12768.7
-7790.34
-2621.32
-937.194
-2714.08
-4309.04
-5720.72
-6981.82
-8132.68
-9211.09
-10249.4
-11274.5
-12308.2
-13368.5
-14469.4
-15622.2
-16834.8
-18112.8
-19459.1
-20874.1
-22355.6
-23899.2
-25497.8
-27142
-28820.1
-30518.1
-32219.7
-33906.5
-35558.3
-37152.5
-38665.3
-40071.1
-41343
-42453
-43372.5
-44072.3
-44523.5
-44697.5
-44567.1
-44106.6
-43292.9
-42105.8
-40529.1
-38550.4
-36162.1
-33361.2
-30148.8
-26529.6
-22511.2
-18103.2
-13319.5
-8187.63
-2773.01
-1337.75
-3716.9
-5694.51
-7337.31
-8736.74
-9970.39
-11097.7
-12163.6
-13201.9
-14239
-15295.2
-16386.4
-17524.6
-18718.7
-19974.6
-21295.6
-22682.4
-24133
-25643.3
-27206.3
-28813
-30452
-32109.6
-33769.8
-35414.8
-37024.6
-38577.4
-40049.8
-41416.8
-42652.3
-43728.9
-44618.7
-45293.3
-45724.5
-45884.3
-45746
-45284.6
-44477.1
-43303.4
-41746.9
-39794.4
-37436.6
-34667.5
-31483.6
-27881.5
-23855.3
-19391.8
-14466.1
-9045.22
-3124.84
-2255.24
-5653.27
-8136.18
-10033.4
-11567
-12874.3
-14043
-15131.3
-16180.6
-17220.9
-18274.7
-19359.2
-20487.4
-21668.7
-22909.2
-24212.6
-25579.7
-27008.9
-28495.9
-30034.2
-31614.8
-33226.6
-34856
-36487.5
-38103.3
-39684
-41208
-42652.3
-43992.5
-45202.7
-46256.2
-47125.4
-47782.6
-48199.8
-48349.8
-48206.2
-47744.1
-46940.9
-45776.5
-44233.9
-42299.2
-39961.7
-37213.1
-34045.5
-30448.1
-26400.3
-21860.2
-16741.9
-10880.7
-4008.49
-4975.49
-9903.46
-12895.6
-14993.1
-16617.4
-17970.4
-19163.3
-20264.6
-21320.1
-22362.2
-23415
-24496.2
-25619.3
-26794
-28026.7
-29321
-30678.1
-32096.2
-33571.3
-35096.9
-36664.1
-38261.9
-39877
-41493.7
-43094.6
-44660.3
-46169.6
-47599.6
-48926
-50123.2
-51164.9
-52023.6
-52671.8
-53082
-53226.9
-53080.6
-52618.2
-51817.2
-50657.5
-49121.9
-47196.2
-44868.9
-42130.1
-38969.6
-35371.4
-31304.7
-26703.2
-21416.4
-15079.3
-6711.41
2258.21
5661.3
8147.98
10047.8
11582.8
12890.6
14058.8
15145.7
16192.6
17229.5
18279.1
19358.4
20480.4
21654.5
22887
24181.4
25538.5
26956.8
28432.1
29957.9
31525.3
33123.2
34738.2
36354.8
37955.5
39520.9
41029.7
42459.1
43784.8
44981.2
46021.9
46879.7
47527
47936.2
48080.3
47933.3
47470.5
46669.6
45510.7
43976.8
42054.2
39732.3
37002.6
33857
30284.4
26263.9
21752.9
16665
10834.9
3993.37
1580.41
4297.74
6471.91
8224.24
9684.92
10953
12099.3
13174.5
14215.7
15251
16301.8
17384.5
18511.7
19692.4
20932.8
22236.2
23603.4
25032.8
26520
28058.5
29639.3
31251.1
32880.5
34511.9
36127.5
37707.8
39231.3
40675
42014.5
43223.8
44276.4
45144.7
45800.8
46217.1
46366.2
46221.9
45759.4
44956.3
43792.5
42251.5
40319.8
37987.5
35247.4
32093.7
28519.4
24511.9
20045.8
15073.8
9522.9
3332.88
1129.77
3221.71
5032.84
6582.46
7929.01
9131.8
10240.6
11295
12326.3
13359
14412.5
15502
16639.3
17832.9
19088.7
20409.7
21796.6
23247.5
24757.9
26321.1
27928
29567.1
31224.6
32884.7
34529.4
36138.8
37691.1
39162.9
40529.2
41763.8
42839.5
43728.3
44401.9
44832
44990.8
44851.8
44389.9
43582.4
42409.3
40854.2
38904.4
36551.3
33789.7
30617.8
27035.2
23041
18631.5
13800.5
8547.6
2916.04
858.193
2506.07
4012.2
5366.63
6591.59
7719.63
8783.54
9812.59
10831.7
11861.7
12919.6
14019.2
15171.1
16383.4
17661.3
19007.7
20422.8
21904.6
23448.3
25047.1
26691.4
28369.6
30067.5
31769
33455.6
35106.9
36700.6
38212.7
39617.7
40888.7
41997.7
42916.1
43614.8
44064.9
44238
44106.7
43645.7
42831.8
41645.2
40069.6
38093.3
35709.1
32914.5
29712.1
26108.3
22113.9
17743.3
13018.5
7977.04
2693.14
688.684
2035.4
3310.26
4500.8
5614.83
6670.35
7688.84
8691.7
9698.58
10726.8
11791
12903.5
14074
15309.6
16615.3
17993.3
19443.8
20964.2
22549.7
24192.9
25884.2
27611.3
29359.9
31113.2
32852.3
34556.2
36202
37764.8
39218.4
40535.1
41686.1
42641.9
43372.4
43847.8
44038.8
43917.5
43457.7
42636
41432.2
39830.7
37820.3
35395.5
32556.5
29310
25668.8
21652.7
17289.2
12616.4
7688.66
2584.79
577.545
1718.3
2823.27
3884.27
4904.87
5896.16
6873.05
7851.62
8847.59
9875.39
10947.8
12075.6
13267.4
14530
15867.4
17281.8
18772.7
20337.4
21970.7
23665
25410.1
27193.5
29000.3
30813.3
32612.8
34377.3
36083
37704.3
39214.2
40583.8
41783.4
42782.4
43549.8
44054.7
44266.8
44157.2
43699.1
42868.5
41645.2
40013.4
37963
35489.7
32596.5
29293.3
25598.2
21537.6
17147.7
12475.5
7581.92
2544.23
501.559
1498.33
2478.99
3440.25
4385.39
5322.76
6263.81
7221.34
8208.36
9237.2
10319
11463.5
12678.4
13969.7
15341.1
16794.2
18328.4
19940.5
21625
23374
25177
27020.9
28890.3
30767.4
32632.1
34461.9
36232.3
37917
39487.6
40914.5
42166.9
43213
44020.7
44557.9
44793.3
44696.9
44241.2
43401.4
42157.2
40492.7
38398.6
35871.7
32917.1
29547.5
25785.1
21661.1
17217.1
12505.2
7589.33
2544.54
447.814
1341.44
2230.43
3115.42
4000.79
4894.14
5805.27
6745.15
7725.05
8755.84
9847.5
11008.7
12246.7
13566.6
14972
16464
18041.6
19701.3
21437.4
23241.6
25102.8
27007.8
28940.6
30882.8
32813.6
34709.8
36546.1
38295.2
39928
41413.6
42720.2
43814.8
44664.1
45234.9
45494.8
45412.7
44960.2
44111.9
42847
41149.8
39011
36428.9
33409.8
29969
26131.5
21932
17415.7
12638.1
7664.31
2568.59
408.617
1226.43
2046.69
2872.98
3711.03
4568.57
5454.78
6379.67
7353.47
8386.1
9486.69
10663.2
11922.3
13268.8
14705.7
16233.9
17852.1
19556.5
21341.2
23197.3
25113.7
27076.6
29069.6
31073.7
33067.5
35027.1
36926.6
38737.6
40430.2
41972.5
43331.6
44473.4
45363.5
45967.6
46252.1
46184.9
45736.8
44881.7
43598.2
41870.6
39690
37055.2
33973.8
30462.9
26549.6
22271.3
17675.8
12820.5
7771.92
2604.1
379.056
1139.38
1906.73
2686.83
3486.67
4314.43
5179.15
6090.43
7057.91
8090.89
9197.93
10386.5
11662.8
13031.3
14494.7
16053.6
17706.5
19449.4
21275.9
23177.2
25141.7
27155.2
29201
31259.6
33309
35324.9
37280.6
39146.9
40893.2
42486.7
43893.4
45078.4
46006.2
46641.4
46949.5
46897.5
46455.3
45596.2
44298.2
42545.7
40329.6
37649.5
34513.7
30940.8
26959.4
22608.8
17938.5
13007.6
7883.77
2641.28
355.791
1070.66
1795.59
2537.87
3305.5
4107.14
4951.98
5849.43
6808.81
7839.04
8948.3
10143.7
11431.1
12814.7
14296.8
15878.1
17556.6
19328.2
21186.5
23122.3
25123.7
27176.5
29263.5
31364.9
33458.3
35519
37519.7
39430.7
41220.6
42856.1
44302.3
45523.6
46483.5
47146
47475.6
47438.6
47004.1
46145
44838.9
43069.7
40828.8
38115.8
34939.9
31320.3
27287
22880.4
18151.4
13160.2
7975.48
2671.86
336.426
1013.27
1702.21
2411.63
3150.26
3927.23
4751.85
5633.51
6581.35
7604.02
8709.43
9904.42
11194.5
12583.8
14074.5
15666.7
17358.7
19146.2
21022.5
22978.3
25001.8
27078.4
29190.8
31319.1
33440.7
35530.5
37560.8
39501.9
41321.6
42986.3
44460.7
45708.5
46692.8
47376.8
47724.6
47702
47277.5
46423.6
45117.7
43343.5
41092.4
38364.2
35168.4
31524.9
27464.3
23027.9
18267.3
13243.6
8025.61
2688.58
319.177
961.98
1618.18
2296.88
3007.34
3758.97
4561.22
5423.43
6354.6
7363.2
8456.88
9642.27
10924.7
12308
13794.3
15383.6
17074
18861.2
20738.4
22696.4
24723.3
26804.5
28922.8
31058.2
33188
35287.2
37328
39280.5
41112.7
42790.5
44278.7
45540.6
46539.1
47237.4
47599.1
47589.9
47178.1
46335.8
45040.5
43275.8
41033
38312
35122.7
31485.1
27430
22999.1
18244.3
13226.6
8015.23
2685.08
302.677
912.742
1536.96
2184.82
2865.88
3589.69
4365.73
5203.24
6111.06
7097.46
8169.88
9334.71
10597.1
11960.7
13427.4
14997.4
16668.5
18436.5
20294.6
22233.8
24242.2
26305.5
28406.5
30525.5
32640.1
34725.5
36754
38696.2
40520
42191.9
43676.6
44937.8
45938.6
46642.2
47012.6
47015.4
46619.1
45796
44523.5
42785.4
40573.1
37886.4
34735.3
31139.6
27130.1
22748.2
18045.5
13082.6
7927.98
2655.86
285.877
862.444
1453.45
2068.53
2717.29
3409.26
4153.79
4959.96
5836.4
6791.12
7831.28
8963.07
10191.4
11519.8
12950
14482.1
16114
17841.5
19658.1
21554.8
23520.1
25539.9
27597.6
29673.9
31746.8
33792
35782.6
37689.6
39481.7
41125.9
42587.6
43831.3
44820.7
45519.5
45892.3
45905.4
45527.8
44732.3
43496.4
41804.4
39647.7
37026.2
33949.5
30437.2
26519.6
22237.2
17640.6
12789.3
7750.34
2596.36
267.978
808.716
1363.79
1942.71
2554.93
3209.79
3916.38
4683.48
5519.4
6431.83
7427.63
8512.69
9691.7
10968
12343.2
13817.4
15388.5
17052.5
18803.1
20631.6
22527.1
24475.9
26462
28466.8
30469.2
32445.7
34370.3
36215.1
37949.9
39542.8
40960.3
42168
43130.7
43813.5
44182
44203.6
43848
43089
41904.9
40280.2
38206.5
35683.9
32721.5
29338.4
25563.7
21436.7
17006.1
12329.6
7471.88
2503.09
248.399
749.825
1265.12
1803.46
2373.95
2985.52
3646.88
4366.37
5151.88
6010.66
6949.22
7973.09
9086.67
10293.1
11593.9
12989.1
14476.8
16053.1
17712.1
19445.6
21243.1
23091.8
24976.6
26879.8
28781.4
30659.1
32488.4
34242.6
35893.1
37409.6
38760.3
39912.5
40832.7
41487.6
41844.6
41872.4
41542.3
40829.3
39712.6
38177.5
36216
33828.1
31022.3
27816.8
24239.3
20327
16126.4
11692.1
7085.66
2373.73
226.75
684.613
1155.55
1648.2
2171.12
2732.68
3341.02
4003.91
4728.7
5522.13
6390.21
7338.08
8369.81
9488.27
10694.9
11989.7
13371
14835
16376.3
17987.4
19658.4
21377.6
23130.8
24901.6
26671.6
28419.9
30123.8
31758.4
33297.2
34711.8
35972.7
37049.4
37910.7
38525.6
38863.4
38895.2
38594.1
37936.6
36903.5
35480.8
33661.2
31444.4
28838.5
25860.3
22535.6
18899.1
14994.1
10871.5
6588.45
2207.18
202.814
612.442
1034.05
1475.56
1944.79
2449.38
2996.75
3593.98
4247.73
4964.13
5748.62
6605.85
7539.51
8552.19
9645.23
10818.6
12070.6
13398.2
14796.2
16257.8
17774.3
19334.8
20926.7
22534.9
24142.8
25731.5
27280.3
28766.7
30166.5
31454.1
32602.5
33583.9
34370.1
34932.8
35244
35277.5
35008.7
34416.2
33482.4
32194.7
30546.2
28536.7
26173.5
23471.9
20455.3
17155.2
13611
9868.86
5980.93
2003.67
176.537
533.157
900.403
1285.29
1694.74
2135.52
2614.17
3136.95
3709.72
4337.88
5026.23
5778.84
6598.97
7488.88
8449.75
9481.55
10582.9
11750.9
12981.2
14267.8
15602.9
16977.1
18379.2
19796
21212.9
22613.2
23978.7
25289.6
26524.5
27660.9
28675.1
29542.4
30238
30736.8
31014.3
31047.2
30813.8
30295.2
29475.8
28344.5
26895.1
25127.5
23048
20670
18014.3
15108.6
11987.5
8691.91
5267.72
1764.75
148.008
447.04
755.105
1078.17
1422.1
1792.65
2195.37
2635.55
3118.16
3647.77
4228.44
4863.6
5556.02
6307.6
7119.36
7991.24
8922.08
9909.49
10949.8
12037.8
13167.1
14329.7
15516
16715.1
17914.4
19099.9
20256.2
21366.5
22412.9
23376
24235.9
24971.8
25562.5
25986.8
26224
26254.1
26059
25622.4
24931.3
23976
22751.4
21257.2
19499
17487.9
15241.6
12783.5
10143
7354.62
4457.31
1493.26
117.448
354.762
599.317
855.894
1129.2
1423.83
1744.24
2094.65
2479.04