/*--------------------------------*- C++ -*----------------------------------*\
| =========                 |                                                 |
| \\      /  F ield         | OpenFOAM: The Open Source CFD Toolbox           |
|  \\    /   O peration     | Version:  5.x                                   |
|   \\  /    A nd           | Web:      www.OpenFOAM.org                      |
|    \\/     M anipulation  |                                                 |
\*---------------------------------------------------------------------------*/
FoamFile
{
    version     2.0;
    format      ascii;
    class       volScalarField;
    location    "0.4";
    object      gradTx;
}
// * * * * * * * * * * * * * * * * * * * * * * * * * * * * * * * * * * * * * //

dimensions      [0 -1 0 1 0 0 0];

internalField   nonuniform List<scalar> 
25000
(
4976.22
2258.87
1347.24
955.561
754.678
641.407
576.079
540.482
524.968
523.805
533.232
550.559
573.697
600.916
630.695
661.642
692.444
721.842
748.612
771.564
789.537
801.407
806.087
802.537
789.771
766.865
732.969
687.314
629.231
558.16
473.679
375.519
263.593
138.023
-0.834171
-152.369
-315.706
-489.72
-673.075
-864.322
-1062.07
-1265.28
-1473.83
-1689.49
-1918
-2173.85
-2493.33
-2976.7
-3950.81
-6699.81
9902.75
5661.28
3742.46
2766.3
2222.63
1904.44
1718.09
1616.3
1572.71
1571.13
1600.77
1653.79
1724.04
1806.4
1896.36
1989.76
2082.68
2171.33
2252.06
2321.29
2375.53
2411.4
2425.64
2415.12
2376.87
2308.11
2206.28
2069.06
1894.44
1680.75
1426.69
1131.47
794.826
417.128
-0.544054
-456.337
-947.6
-1470.91
-2022.19
-2596.99
-3190.97
-3800.76
-4425.46
-5069.3
-5746.92
-6494.36
-7395.08
-8647.3
-10754.2
-15091
12884.8
8139.83
5727.43
4386.41
3595.6
3117.38
2833.08
2678.14
2614.5
2617.89
2671.62
2763.31
2883.1
3022.69
3174.66
3332.16
3488.68
3637.96
3773.89
3890.49
3981.94
4042.6
4066.98
4049.86
3986.26
3871.52
3701.33
3471.83
3179.6
2821.85
2396.41
1901.95
1338.02
705.275
5.54225
-758.027
-1580.92
-2457.27
-3380.1
-4341.65
-5334.2
-6351.3
-7390
-8454.55
-9563.24
-10761.8
-12151.9
-13956.2
-16684.3
-21589.1
14957.4
10018.1
7362.9
5808.56
4855.73
4265.46
3911.27
3720.5
3648.17
3664.45
3748.15
3883.14
4056.31
4256.41
4473.31
4697.54
4920.09
5132.19
5325.3
5491.04
5621.25
5707.95
5743.44
5720.34
5631.62
5470.7
5231.5
4908.52
4496.97
3992.85
3393.14
2695.91
1900.58
1008.08
21.0381
-1056
-2216.51
-3452.03
-4752.34
-6105.99
-7501.23
-8927.6
-10378.5
-11855.3
-13375.2
-14984.2
-16784.4
-18993.9
-22095.6
-27261.1
16536.1
11511.7
8734.09
7059.21
6007.58
5346.67
4949.81
4741.53
4673.33
4711.92
4832.84
5016.97
5248.43
5513.33
5798.99
6093.44
6385.2
6663.04
6915.99
7133.25
7304.26
7418.7
7466.59
7438.34
7324.83
7117.49
6808.41
6390.42
5857.27
5203.75
4425.91
3521.26
2489.05
1330.52
49.1906
-1348.9
-2855.08
-4457.99
-6143.87
-7897.06
-9701.1
-11540.5
-13403.3
-15286.1
-17200.9
-19188.4
-21343.6
-23871.8
-27230.9
-32549.9
17816
12751.8
9912.09
8172.14
7065.59
6366.58
5950.71
5742.2
5691.05
5761.89
5927.98
6167.86
6463.29
6798.01
7156.95
7525.76
7890.54
8237.63
8553.6
8825.23
9039.51
9183.74
9245.61
9213.25
9075.37
8821.36
8441.39
7926.58
7269.15
6462.63
5502.09
4384.45
3108.81
1676.76
92.762
-1635.53
-3497.07
-5477.37
-7558.74
-9720.81
-11941.7
-14199.9
-16477.1
-18762.9
-21061.9
-23406.9
-25882.8
-28681.7
-32243.1
-37672.9
18901.9
13819.1
10949.5
9178.18
8046.61
7334.05
6918.59
6725.13
6703.13
6816.01
7035.4
7337.96
7703.43
8113.41
8550.6
8998.35
9440.37
9860.61
10243.2
10572.4
10832.7
11009.1
11086.7
11051.4
10889.7
10588.8
10136.9
9523.31
8738.67
7775.18
6626.9
5290.14
3763.81
2049.91
153.926
-1914.75
-4142.53
-6511.51
-8999.67
-11581.5
-14229
-16913.8
-19610.3
-22299.7
-24978.2
-27669
-30446.5
-33490.8
-37227.8
-42750.1
19855.1
14764.9
11884
10102.4
8966.24
8258.35
7858.83
7693.39
7711.4
7875.46
8156.01
8528.13
8969.8
9460.62
9981.2
10512.7
11036.4
11533.8
11986.8
12376.9
12686.3
12897.2
12992.6
12955.7
12770.8
12422.9
11898
11183.7
10268.9
9144.33
7803.13
6240.88
4456.34
2451.91
234.187
-2185.57
-4791.04
-7560.63
-10467.7
-13480.9
-16566
-19686.8
-22809.5
-25906.5
-28964.4
-31996.2
-35066.2
-38343.5
-42243.7
-47850.4
20714.2
15623.1
12742.1
10963.8
9837.36
9147.64
8776.27
8649.62
8717.01
8940.5
9289.46
9737.67
10261.4
10838.5
11447.6
12067.4
12677.2
13256
13783.1
14237.6
14599
14847.1
14962.2
14925.2
14717.7
14322.7
13724
12907.2
11859.4
10569.9
9030.78
7236.87
5186.78
2883.35
334.319
-2447.06
-5441.54
-8623.63
-11961.7
-15418.4
-18952.2
-22519.3
-26076.5
-29587.1
-33027.3
-36400.3
-39759.7
-43265.2
-47323.3
-53010.9
21504.2
16416.1
13542.2
11776.5
10669.7
10008.2
9674.46
9595.3
9719.98
10010
10433.8
10964
11575.3
12243.7
12945.8
13658.5
14358.5
15022.5
15627.2
16149.3
16565.7
16853.4
16990.2
16954.5
16725.4
16283.5
15610.3
14689.4
13506.2
12048.5
10306.9
8275.83
5953.56
3343.4
454.328
-2698.33
-6092.28
-9697.88
-13478.2
-17389.7
-21383.2
-25406.3
-29406.9
-33337.8
-37165.2
-40881.8
-44531.2
-48263.8
-52478.3
-58245.6
22241.3
17158.9
14296.9
12550
11470.1
10844.1
10555.2
10530.5
10718.8
11081.3
11585.4
12202.5
12905.9
13670
14469.3
15278.6
16072.4
16825.1
17510.6
18103.2
18577.1
18906.8
19067.2
19034.2
18784.4
18295.9
17548
16522.1
15201.7
13573
11625.6
9352.84
6752.99
3829.78
593.434
-2938.56
-6740.72
-10779.1
-15011.4
-19387.2
-23849.7
-28337.7
-32789.3
-37147.1
-41366.8
-45430.4
-49371.8
-53332.2
-57703.1
-63550.1
22936
17861
15014
13290.4
12242.2
11657.2
11418.6
11453.4
11710.3
12149.8
12738.5
13446.5
14245.8
15108.9
16008.6
16917.6
17808.1
18652
19421
20086.5
20620.1
20993.6
21179.3
21150.4
20881
20346.5
19524.1
18392.8
16934.3
15133.2
12977.6
10460.4
7579.32
4338.73
750.07
-3166.94
-7383.53
-11861.4
-16552.4
-21399.6
-26338
-31297.3
-36205.7
-40995.4
-45611.3
-50024.9
-54260.2
-58449.6
-62977.4
-68904.1
23594.2
18527.8
15698
14000.5
12987.6
12447.2
12262.6
12360.6
12689.6
13209.3
13885.5
14687.2
15584.8
16549.3
17551.6
18562.3
19551.4
20488.4
21342.5
22082.5
22677.4
23096.3
23308.8
23285.3
22997.3
22417.8
21521.6
20285.4
18689
16715.2
14351.1
11588.3
8424.77
4865.04
921.91
-3382.66
-8016.57
-12937
-18090.2
-23412.1
-28829.7
-34263.4
-39631.4
-44855.2
-49869.1
-54633.9
-59163.7
-63582.3
-68267.1
-74273.6
24219
19161.8
16350.5
14680.9
13705.4
13211.8
13083.5
13246.9
13650
14251.8
15017.1
15913.8
16910.9
17977.8
19083.6
20196.8
21285.2
22316.1
23256.1
24071.4
24728.5
25193.7
25433.9
25416.9
25111.6
24488.4
23519.7
22180.1
20447.2
18302.3
15731.1
12724.4
9279.7
5402.21
1105.92
-3584.95
-8635.01
-13996.9
-19611.1
-25406.6
-31302.1
-37209
-43035.2
-48691.7
-54102
-59216.4
-64039.3
-68686
-73526.8
-79612.6
24810.6
19763
16970.9
15330
14392.9
13947.3
13876.2
14105.8
14583.5
15267.7
16122.3
17113.8
18210.1
19379
20587.7
21802.8
22990
24114.2
25139.7
26030.2
26749.5
27261.2
27529.7
27520.2
27198.9
26533.7
25494.6
24054
22187.7
19875
17100.4
13853.9
10132.8
5942.54
1298.44
-3773.09
-9233.33
-15030.5
-21099.4
-27362
-33729
-40102.4
-46380.5
-52463.7
-58264.8
-63723.7
-68835.4
-73706.6
-78701.1
-84864.9
25367.7
20329.7
17556.9
15944.9
15046.2
14648.3
14634
14929.2
15480.8
16246.2
17188.5
18273.3
19466.9
20735.7
22045.3
23360.2
24644.2
25859.9
26969.2
27933.6
28714
29271.8
29568.8
29567.3
29231.3
28526.2
27419.6
25881.8
23886.5
21411.5
18439.9
14960.9
10971.4
6477.37
1495.26
-3946.35
-9805.55
-16026.2
-22537.5
-29254.7
-36080.6
-42908.3
-49626.3
-56124.7
-62306
-68100.3
-73492.9
-78582.6
-83726.5
-89966.2
25887.4
20858.9
18104.9
16521.1
15659.9
15308.5
15349.5
15708.4
16331.4
17175.4
18202.5
19377.2
20664.7
22029.8
23436.5
24847.6
26224.8
27528.6
28718.8
29754.4
30594.1
31196.8
31521.6
31528.7
31179.4
30436.8
29266.4
27636.2
25518.2
22888.5
19728.9
16027.9
11781.9
6997.3
1691.77
-4104.1
-10345.3
-16971.6
-23906.8
-31059.7
-38325.3
-45588.4
-52728
-59624.4
-66170.3
-72285.9
-77947.7
-83246.7
-88533.9
-94846.3
26365.8
21346.3
18610.3
17053.5
16228
15920.8
16014.4
16433.7
17124.5
18042.9
19150.3
20410.1
21786.3
23242.3
24740.7
26242.6
27707.8
29095
30361.7
31464.8
32360.7
33006
33357.7
33373.4
33012.2
32235.2
31005.3
29289.1
27056.3
24281.8
20946
17036.6
12549.9
7492.51
1883.11
-4245.72
-10846.2
-17853.9
-25187.9
-32750.6
-40430.2
-48103
-55639.3
-62910.5
-69799.4
-76217.4
-82132.7
-87628.8
-93050.7
-99431.6
26798.5
21787.4
19068.2
17536.4
16744
16478
16620.3
17095.5
17849
18836.3
20017.8
21356.2
22814.3
24354.4
25937.4
27523.2
29069.7
30533.8
31871.2
33036.7
33984.8
34669.8
35046.6
35070.7
34699.2
33890.8
32607
30812
28474.2
25567
22069.6
17969
13261.2
7953.05
2064.32
-4370.72
-11301.6
-18660.3
-26361.3
-34301.4
-42361.9
-50412
-58313.7
-65929.8
-73134.7
-79831.3
-85979.9
-91657.5
-97203.6
-103647
27180.8
22177.2
19473.1
17963.9
17201.4
16972.4
17158.6
17684.2
18494.1
19543.2
20791.4
22200.4
23732.1
25347.5
27006.7
28667.6
30287.2
31820.4
33221.4
34443.1
35438.1
36159
36558.6
36590.7
36210.2
35374.3
34042.5
32177.5
29746.1
26720.4
23078.7
18807.2
13901.6
8369.23
2230.52
-4478.63
-11705.3
-19378.5
-27408.2
-35686.3
-44088.2
-52476.4
-60705.6
-68630.9
-76119
-83065.3
-89423.2
-95263.4
-100921
-107421
27507.9
22510.9
19820
18330.3
17593.8
17397
17621.3
18190.6
19049.5
20152.3
21458.3
22928.4
24523.9
26204.7
27929.7
29656
31338.8
32932
34388.1
35658.6
36694.5
37446.6
37866.3
37905.4
37517.6
36658.1
35285.1
33359.8
30847.7
27719.8
23953.5
19534.5
14458.1
8731.9
2377.09
-4569.08
-12051.7
-19996.8
-28310.9
-36881.6
-45579
-54259.8
-62772.5
-70965.5
-78698.8
-85861.2
-92400.2
-98381.3
-104135
-110684
27775.5
22784
20103.9
18630.5
17915.5
17745.3
18001.1
18606.6
19505.9
20653.1
22006.8
23527.6
25175.6
26910.5
28690
30470.1
32205.2
33848
35349.7
36660.6
37730.3
38508.4
38944.7
38989.9
38596.1
37717.5
36310.6
34335.8
31757.4
28545.4
24676.6
20135.9
14918.8
9032.84
2499.86
-4641.78
-12335.5
-20504.9
-29053.8
-37865.8
-46807
-55729.4
-64476
-72890
-80825.7
-88166.6
-94855.2
-100953
-106786
-113376
27979.8
22992.5
20320.8
18859.9
18161.5
18011.7
18291.7
18925.1
19855.5
21036.8
22427.3
23986.9
25675.5
27451.9
29273.2
31094.8
32870.2
34551.1
36087.9
37429.9
38525.6
39323.7
39772.9
39822.9
39424.7
38531.4
37098.7
35086
32456.7
29180.3
25232.7
20598.8
15273.7
9265.06
2595.26
-4696.5
-12552.3
-20894.1
-29623.3
-38620.8
-47749.4
-56857.4
-65783.9
-74367.7
-82458.9
-89937
-96740.5
-102927
-108822
-115442
28117.8
23133.4
20467.4
19015
18327.7
18191.9
18488.4
19140.6
20092.2
21296.7
22712.1
24298.1
26014.2
27818.7
29668.5
31518.2
33320.9
35027.7
36588.3
37951.4
39064.9
39876.6
40334.6
40387.8
39986.7
39083.5
37633.4
35594.9
32931.3
29611.2
25610.3
20913.2
15514.8
9423.04
2660.48
-4733.07
-12698.8
-21157.5
-30009
-39132.3
-48388.1
-57621.9
-66670.4
-75369.4
-83566.2
-91137.4
-98018.9
-104266
-110202
-116844
28187.4
23204.3
20541.2
19093.1
18411.6
18282.7
18587.6
19249.3
20211.6
21427.8
22855.8
24455.1
26185.1
28003.9
29868
31732
33548.5
35268.3
36841
38214.8
39337.2
40155.8
40618.3
40673.2
40270.6
39362.4
37903.5
35852.1
33171.1
29828.9
25801.2
21072.1
15636.8
9502.99
2693.57
-4751.4
-12772.7
-21290.5
-30203.7
-39390.6
-48710.5
-58008
-67118.2
-75875.4
-84125.5
-91743.7
-98664.6
-104943
-110900
-117552
28187.4
23204.3
20541.2
19093.1
18411.6
18282.7
18587.6
19249.4
20211.6
21427.8
22855.8
24455.1
26185.1
28003.9
29868
31732
33548.5
35268.3
36841
38214.8
39337.2
40155.8
40618.3
40673.2
40270.6
39362.4
37903.5
35852.1
33171.1
29828.9
25801.1
21072.1
15636.8
9502.97
2693.56
-4751.42
-12772.7
-21290.5
-30203.7
-39390.6
-48710.6
-58008
-67118.2
-75875.4
-84125.5
-91743.7
-98664.6
-104943
-110899
-117552
28117.8
23133.4
20467.4
19015
18327.7
18191.9
18488.4
19140.6
20092.2
21296.7
22712.1
24298.1
26014.2
27818.7
29668.5
31518.2
33320.9
35027.7
36588.3
37951.4
39064.9
39876.6
40334.6
40387.8
39986.7
39083.5
37633.3
35594.9
32931.3
29611.1
25610.3
20913.1
15514.8
9422.99
2660.42
-4733.13
-12698.9
-21157.6
-30009
-39132.3
-48388.1
-57621.9
-66670.4
-75369.4
-83566.2
-91137.3
-98018.8
-104266
-110202
-116844
27979.8
22992.5
20320.8
18859.9
18161.5
18011.7
18291.8
18925.1
19855.6
21036.9
22427.3
23986.9
25675.6
27451.9
29273.3
31094.9
32870.2
34551.1
36087.9
37429.9
38525.7
39323.7
39772.9
39822.9
39424.7
38531.4
37098.7
35085.9
32456.7
29180.2
25232.7
20598.8
15273.6
9264.97
2595.17
-4696.59
-12552.4
-20894.2
-29623.3
-38620.8
-47749.5
-56857.4
-65783.9
-74367.6
-82458.8
-89936.9
-96740.4
-102927
-108822
-115442
27775.5
22784
20103.9
18630.5
17915.5
17745.3
18001.1
18606.6
19505.9
20653.1
22006.9
23527.6
25175.7
26910.5
28690
30470.1
32205.3
33848
35349.7
36660.6
37730.3
38508.4
38944.7
38989.9
38596.1
37717.4
36310.6
34335.7
31757.3
28545.3
24676.5
20135.8
14918.7
9032.72
2499.73
-4641.91
-12335.6
-20505.1
-29053.9
-37865.9
-46807.1
-55729.4
-64476
-72890
-80825.6
-88166.5
-94855
-100952
-106786
-113375
27507.9
22510.9
19820
18330.3
17593.8
17397
17621.3
18190.6
19049.5
20152.3
21458.3
22928.5
24523.9
26204.7
27929.8
29656
31338.8
32932
34388.1
35658.6
36694.5
37446.6
37866.3
37905.4
37517.6
36658.1
35285
33359.7
30847.6
27719.7
23953.4
19534.3
14458
8731.75
2376.94
-4569.24
-12051.8
-19996.9
-28311.1
-36881.7
-45579.1
-54259.8
-62772.5
-70965.4
-78698.7
-85861.1
-92400
-98381.1
-104135
-110684
27180.8
22177.2
19473.1
17963.9
17201.4
16972.4
17158.6
17684.2
18494.1
19543.3
20791.5
22200.4
23732.1
25347.6
27006.7
28667.7
30287.2
31820.5
33221.4
34443.1
35438.1
36159
36558.6
36590.7
36210.2
35374.3
34042.4
32177.4
29746
26720.3
23078.5
18807
13901.5
8369.06
2230.34
-4478.81
-11705.5
-19378.7
-27408.3
-35686.4
-44088.3
-52476.5
-60705.6
-68630.9
-76118.9
-83065.1
-89422.9
-95263.1
-100920
-107421
26798.5
21787.4
19068.2
17536.4
16744
16478
16620.3
17095.6
17849.1
18836.3
20017.9
21356.2
22814.3
24354.4
25937.5
27523.2
29069.7
30533.8
31871.2
33036.7
33984.8
34669.8
35046.6
35070.7
34699.1
33890.8
32606.9
30811.9
28474.1
25566.8
22069.5
17968.8
13261
7952.86
2064.12
-4370.93
-11301.8
-18660.5
-26361.5
-34301.5
-42362
-50412
-58313.7
-65929.7
-73134.5
-79831.1
-85979.6
-91657.1
-97203.2
-103647
26365.8
21346.3
18610.3
17053.5
16227.9
15920.9
16014.5
16433.8
17124.5
18042.9
19150.3
20410.1
21786.3
23242.4
24740.8
26242.7
27707.9
29095.1
30361.7
31464.8
32360.7
33006.1
33357.7
33373.4
33012.2
32235.1
31005.3
29289
27056.2
24281.7
20945.9
17036.5
12549.7
7492.3
1882.9
-4245.95
-10846.4
-17854.1
-25188.1
-32750.8
-40430.3
-48103.1
-55639.3
-62910.4
-69799.2
-76217.2
-82132.4
-87628.4
-93050.3
-99431.2
25887.4
20858.8
18104.9
16521.1
15659.9
15308.5
15349.5
15708.4
16331.4
17175.4
18202.5
19377.3
20664.8
22029.9
23436.5
24847.6
26224.8
27528.7
28718.8
29754.4
30594.1
31196.8
31521.6
31528.7
31179.4
30436.8
29266.3
27636.1
25518.1
22888.4
19728.8
16027.7
11781.7
6997.08
1691.54
-4104.33
-10345.6
-16971.8
-23907
-31059.8
-38325.5
-45588.5
-52728
-59624.4
-66170.1
-72285.6
-77947.4
-83246.3
-88533.5
-94845.9
25367.7
20329.7
17556.9
15944.9
15046.2
14648.3
14634
14929.3
15480.8
16246.2
17188.5
18273.3
19467
20735.8
22045.3
23360.3
24644.3
25860
26969.3
27933.6
28714
29271.9
29568.8
29567.3
29231.3
28526.2
27419.6
25881.7
23886.4
21411.4
18439.8
14960.7
10971.2
6477.15
1495.02
-3946.6
-9805.8
-16026.4
-22537.7
-29254.9
-36080.7
-42908.4
-49626.2
-56124.6
-62305.8
-68100
-73492.5
-78582.2
-83726.1
-89965.8
24810.6
19763
16970.9
15330
14392.9
13947.3
13876.2
14105.8
14583.6
15267.8
16122.3
17113.9
18210.2
19379
20587.7
21802.8
22990.1
24114.3
25139.8
26030.3
26749.5
27261.2
27529.7
27520.2
27198.8
26533.6
25494.5
24053.9
22187.6
19874.9
17100.3
13853.8
10132.6
5942.32
1298.2
-3773.33
-9233.57
-15030.7
-21099.6
-27362.2
-33729.1
-40102.5
-46380.5
-52463.6
-58264.6
-63723.4
-68835
-73706.2
-78700.7
-84864.4
24218.9
19161.7
16350.5
14680.8
13705.4
13211.8
13083.5
13246.9
13650.1
14251.9
15017.2
15913.9
16910.9
17977.8
19083.6
20196.8
21285.3
22316.1
23256.1
24071.5
24728.5
25193.7
25433.9
25416.9
25111.6
24488.4
23519.6
22180
20447.1
18302.2
15730.9
12724.2
9279.51
5401.99
1105.69
-3585.19
-8635.25
-13997.1
-19611.3
-25406.8
-31302.3
-37209
-43035.2
-48691.7
-54101.8
-59216.1
-64039
-68685.6
-73526.4
-79612.2
23594.2
18527.7
15698
14000.4
12987.6
12447.2
12262.6
12360.6
12689.6
13209.4
13885.6
14687.2
15584.8
16549.3
17551.7
18562.4
19551.4
20488.5
21342.5
22082.6
22677.5
23096.3
23308.8
23285.3
22997.3
22417.8
21521.5
20285.3
18688.9
16715.1
14350.9
11588.2
8424.59
4864.83
921.69
-3382.88
-8016.8
-12937.2
-18090.4
-23412.3
-28829.8
-34263.5
-39631.4
-44855.1
-49868.9
-54633.6
-59163.3
-63581.9
-68266.7
-74273.2
22935.9
17860.9
15013.9
13290.3
12242.2
11657.2
11418.6
11453.4
11710.3
12149.8
12738.5
13446.6
14245.8
15108.9
16008.7
16917.7
17808.2
18652.1
19421
20086.5
20620.1
20993.6
21179.3
21150.4
20881
20346.5
19524
18392.7
16934.2
15133.1
12977.5
10460.2
7579.14
4338.53
749.862
-3167.15
-7383.74
-11861.6
-16552.6
-21399.8
-26338.1
-31297.4
-36205.7
-40995.3
-45611.1
-50024.7
-54259.8
-58449.2
-62977
-68903.7
22241.2
17158.9
14296.8
12550
11470
10844.1
10555.2
10530.5
10718.8
11081.3
11585.4
12202.5
12906
13670
14469.4
15278.7
16072.5
16825.1
17510.7
18103.3
18577.1
18906.8
19067.2
19034.2
18784.4
18295.9
17548
16522
15201.6
13572.9
11625.4
9352.69
6752.83
3829.61
593.243
-2938.76
-6740.92
-10779.3
-15011.5
-19387.3
-23849.8
-28337.8
-32789.3
-37147
-41366.6
-45430.1
-49371.5
-53331.9
-57702.7
-63549.7
21504.1
16416.1
13542.2
11776.5
10669.7
10008.2
9674.44
9595.3
9719.99
10010
10433.9
10964
11575.3
12243.7
12945.8
13658.5
14358.5
15022.5
15627.3
16149.4
16565.7
16853.4
16990.2
16954.5
16725.4
16283.4
15610.3
14689.4
13506.1
12048.4
10306.8
8275.7
5953.41
3343.24
454.155
-2698.52
-6092.46
-9698.06
-13478.4
-17389.8
-21383.3
-25406.4
-29406.8
-33337.7
-37165.1
-40881.5
-44530.9
-48263.4
-52477.9
-58245.2
20714.2
15623
12742
10963.8
9837.31
9147.6
8776.25
8649.6
8717.01
8940.5
9289.48
9737.69
10261.5
10838.6
11447.6
12067.5
12677.2
13256.1
13783.1
14237.6
14599
14847.1
14962.2
14925.2
14717.7
14322.7
13724
12907.1
11859.3
10569.8
9030.69
7236.76
5186.66
2883.21
334.165
-2447.22
-5441.7
-8623.79
-11961.8
-15418.5
-18952.3
-22519.3
-26076.5
-29587
-33027.2
-36400
-39759.4
-43264.8
-47323
-53010.5
19855.1
14764.8
11884
10102.3
8966.18
8258.31
7858.8
7693.38
7711.39
7875.47
8156.02
8528.15
8969.82
9460.65
9981.23
10512.7
11036.4
11533.9
11986.8
12376.9
12686.3
12897.3
12992.6
12955.7
12770.8
12422.8
11898
11183.6
10268.8
9144.27
7803.05
6240.78
4456.23
2451.79
234.054
-2185.71
-4791.18
-7560.77
-10467.8
-13481.1
-16566
-19686.9
-22809.5
-25906.5
-28964.3
-31996
-35066
-38343.2
-42243.4
-47850.1
18901.8
13819
10949.5
9178.12
8046.55
7334.01
6918.56
6725.11
6703.13
6816.01
7035.4
7337.97
7703.45
8113.43
8550.62
8998.38
9440.4
9860.64
10243.2
10572.4
10832.7
11009.1
11086.7
11051.4
10889.7
10588.8
10136.9
9523.28
8738.63
7775.13
6626.84
5290.06
3763.72
2049.81
153.813
-1914.87
-4142.65
-6511.63
-8999.78
-11581.5
-14229
-16913.8
-19610.2
-22299.7
-24978.1
-27668.8
-30446.3
-33490.5
-37227.5
-42749.8
17816
12751.7
9912.03
8172.08
7065.54
6366.54
5950.68
5742.18
5691.04
5761.89
5927.98
6167.87
6463.3
6798.02
7156.97
7525.78
7890.56
8237.65
8553.62
8825.25
9039.53
9183.76
9245.62
9213.26
9075.37
8821.36
8441.38
7926.56
7269.12
6462.59
5502.04
4384.39
3108.74
1676.67
92.6692
-1635.63
-3497.17
-5477.47
-7558.83
-9720.88
-11941.8
-14199.9
-16477.1
-18762.8
-21061.8
-23406.7
-25882.6
-28681.5
-32242.8
-37672.6
16536
11511.6
8734.03
7059.15
6007.53
5346.63
4949.78
4741.51
4673.32
4711.92
4832.84
5016.97
5248.44
5513.35
5799.01
6093.46
6385.22
6663.06
6916.01
7133.27
7304.27
7418.71
7466.6
7438.35
7324.84
7117.49
6808.4
6390.4
5857.25
5203.72
4425.87
3521.21
2488.99
1330.45
49.1162
-1348.98
-2855.16
-4458.08
-6143.95
-7897.12
-9701.15
-11540.5
-13403.3
-15286.1
-17200.8
-19188.2
-21343.4
-23871.6
-27230.7
-32549.7
14957.4
10018
7362.85
5808.51
4855.69
4265.42
3911.25
3720.48
3648.16
3664.45
3748.16
3883.14
4056.32
4256.42
4473.32
4697.56
4920.1
5132.2
5325.31
5491.06
5621.26
5707.96
5743.45
5720.35
5631.63
5470.7
5231.49
4908.51
4496.95
3992.83
3393.11
2695.87
1900.54
1008.02
20.9807
-1056.06
-2216.57
-3452.09
-4752.4
-6106.04
-7501.27
-8927.62
-10378.5
-11855.3
-13375.1
-14984.1
-16784.3
-18993.8
-22095.4
-27261
12884.7
8139.8
5727.4
4386.38
3595.57
3117.36
2833.06
2678.13
2614.49
2617.89
2671.62
2763.31
2883.11
3022.7
3174.67
3332.17
3488.7
3637.97
3773.9
3890.5
3981.95
4042.61
4066.99
4049.87
3986.27
3871.52
3701.33
3471.82
3179.59
2821.83
2396.39
1901.92
1337.99
705.239
5.50122
-758.072
-1580.96
-2457.32
-3380.14
-4341.68
-5334.22
-6351.32
-7390
-8454.52
-9563.2
-10761.8
-12151.8
-13956.1
-16684.2
-21589
9902.73
5661.26
3742.44
2766.28
2222.61
1904.43
1718.08
1616.29
1572.7
1571.13
1600.78
1653.79
1724.04
1806.41
1896.37
1989.77
2082.69
2171.34
2252.07
2321.3
2375.54
2411.41
2425.65
2415.12
2376.87
2308.11
2206.27
2069.06
1894.44
1680.74
1426.68
1131.46
794.808
417.106
-0.568805
-456.364
-947.628
-1470.94
-2022.21
-2597.01
-3190.99
-3800.77
-4425.46
-5069.29
-5746.89
-6494.32
-7395.03
-8647.24
-10754.2
-15090.9
4976.21
2258.86
1347.23
955.554
754.671
641.401
576.075
540.479
524.967
523.804
533.233
550.559
573.698
600.918
630.697
661.644
692.447
721.844
748.615
771.566
789.54
801.409
806.089
802.538
789.772
766.866
732.969
687.314
629.229
558.158
473.675
375.514
263.587
138.016
-0.842265
-152.377
-315.715
-489.729
-673.084
-864.33
-1062.07
-1265.29
-1473.83
-1689.49
-1917.99
-2173.84
-2493.31
-2976.68
-3950.79
-6699.79
2258.93
1584.04
1139.25
876.562
719.087
623.27
566.04
534.625
521.446
521.662
531.937
549.799
573.282
600.723
630.643
661.677
692.528
721.947
748.717
771.653
789.598
801.428
806.06
802.455
789.63
766.663
732.704
686.989
628.849
557.731
473.214
375.034
263.11
137.571
-1.21768
-152.634
-315.785
-489.519
-672.459
-863.086
-1059.89
-1261.62
-1467.73
-1679.1
-1899.4
-2137.71
-2413.7
-2768.02
-3275.23
-3981.75
5660.58
4305.74
3247.26
2558.3
2123.74
1852.65
1689
1599.19
1562.37
1564.83
1596.96
1651.55
1722.82
1805.84
1896.22
1989.87
2082.93
2171.65
2252.38
2321.56
2375.71
2411.46
2425.56
2414.87
2376.44
2307.49
2205.47
2068.08
1893.29
1679.45
1425.29
1130
793.365
415.758
-1.70949
-457.149
-947.858
-1470.33
-2020.38
-2593.35
-3184.56
-3790.01
-4407.61
-5039.15
-5693.74
-6393.8
-7185.15
-8149.98
-9396.42
-10846.5
8137.08
6475.54
5065.75
4089.57
3447.88
3037.67
2787.46
2650.98
2597.97
2607.76
2665.48
2759.7
2881.14
3021.8
3174.44
3332.36
3489.12
3638.49
3774.41
3890.92
3982.23
4042.69
4066.83
4049.43
3985.53
3870.48
3699.98
3470.16
3177.65
2819.66
2394.04
1899.47
1335.55
702.955
3.55834
-759.43
-1581.41
-2456.4
-3377.22
-4335.79
-5323.87
-6334.06
-7361.59
-8407.11
-9481.18
-10611.3
-11851.8
-13290.9
-15016.2
-16837.5
10012.1
8208.81
6608.01
5454.47
4673.09
4164.24
3852.24
3684.9
3626.31
3650.98
3739.96
3878.34
4053.71
4255.25
4473.06
4697.86
4920.71
5132.94
5326.03
5491.65
5621.64
5708.05
5743.2
5719.71
5630.56
5469.2
5229.55
4906.14
4494.18
3989.72
3389.75
2692.38
1897.05
1004.75
18.1767
-1058.06
-2217.32
-3450.98
-4748.56
-6098.2
-7487.47
-8904.7
-10341
-11793.7
-13270.6
-14797.5
-16425.6
-18233.9
-20280.9
-22310.1
11501.3
9629.54
7926.31
6668.96
5800.88
5229.62
4880.42
4699.17
4647.1
4695.67
4822.93
5011.17
5245.32
5511.98
5798.76
6093.9
6386.03
6664.01
6916.93
7134.01
7304.73
7418.79
7466.23
7437.47
7323.41
7115.49
6805.82
6387.27
5853.6
5199.63
4421.45
3516.61
2484.4
1326.12
45.3747
-1351.71
-2856.33
-4456.92
-6139.41
-7887.67
-9684.45
-11512.8
-13358.6
-15213.3
-17079.4
-18976.3
-20947.1
-23057.2
-25341.5
-27507.7
12736.1
10830.4
9073.41
7759.05
6842.63
6238.24
5873.6
5694.65
5661.39
5743.43
5916.71
6161.29
6459.81
6796.55
7156.78
7526.39
7891.58
8238.82
8554.73
8826.13
9040.05
9183.8
9245.1
9212.11
9073.54
8818.81
8438.12
7922.61
7264.53
6457.45
5496.48
4378.61
3102.96
1671.2
87.9005
-1639.19
-3498.87
-5476.43
-7553.82
-9710.16
-11922.7
-14168.5
-16426.5
-18681.4
-20927.9
-23177.1
-25461.9
-27834.4
-30312.5
-32583.6
13797.2
11875.3
10092.3
8750.56
7812.77
7197.8
6835.88
6673.71
6670.87
6795.87
7023.11
7330.83
7699.71
8111.93
8550.56
8999.17
9441.65
9862.03
10244.5
10573.4
10833.3
11009.1
11086
11050
10887.4
10585.6
10132.9
9518.45
8733.03
7768.86
6620.07
5283.01
3756.67
2043.11
147.919
-1919.38
-4145.02
-6510.87
-8994.53
-11569.9
-14208.1
-16879.3
-19555
-22211.6
-24835.1
-27426.8
-30009.3
-32623
-35272.7
-37633.8
14736
12807.8
11015.3
9665.44
8725.15
8116.66
7772.17
7639.2
7677.25
7854.11
8143
8520.65
8965.97
9459.21
9981.33
10513.7
11037.9
11535.5
11988.3
12378
12686.9
12897.1
12991.7
12953.9
12768
12419
11893.2
11177.8
10262.1
9136.8
7794.99
6232.38
4447.81
2443.76
226.93
-2191.28
-4794.35
-7560.45
-10462.5
-13468.8
-16543.7
-19650
-22750.7
-25813.4
-28814.4
-31745.1
-34617.8
-37462.2
-40273.2
-42717.4
15586.5
13657.9
11866.3
10520.9
9591.49
9002.28
8686.89
8593.48
8681.56
8918.32
9276.01
9730
10257.6
10837.3
11447.9
12068.7
12679
13257.9
13784.7
14238.8
14599.6
14846.9
14961
14922.9
14714.4
14318.2
13718.3
12900.3
11851.4
10561.1
9021.24
7226.92
5176.78
2873.75
325.711
-2453.95
-5445.8
-8624.06
-11956.7
-15405.8
-18929
-22480.5
-26014.9
-29490
-32872.1
-36142.5
-39303.2
-42374.4
-45342.2
-47866.8
16371.1
14445.9
12661.9
11329.8
10420.7
9860.41
9583.27
9537.89
9683.68
9987.33
10420.1
10956.3
11571.6
12242.6
12946.4
13660.1
14360.5
15024.6
15629
16150.6
16566.2
16853
16988.7
16951.8
16721.4
16278.1
15603.6
14681.5
13497
12038.2
10295.9
8264.33
5941.98
3332.27
444.273
-2706.52
-6097.59
-9699.05
-13473.6
-17377
-21359.2
-25366.2
-29343
-33237.5
-37005.9
-40619
-44068.7
-47366
-50489.5
-53093.5
17104.9
15185.6
13413.7
12100.9
11219.1
10694.8
10462.9
10472.2
10682
11058.3
11571.6
12194.9
12902.4
13669.2
14470.2
15280.5
16074.7
16827.3
17512.6
18104.6
18577.6
18906.2
19065.4
19031
18779.8
18289.7
17540.3
16512.9
15191.2
13561.3
11613
9339.71
6739.76
3817.03
581.847
-2948.12
-6747.18
-10781.1
-15007.2
-19374.5
-23825.1
-28296.4
-32723.6
-37044.3
-41204.1
-45163.5
-48904.5
-52429.1
-55708.5
-58391.8
17797.5
15885.7
14129.1
12839.7
11990
11506.9
11325.6
11394.7
11673.3
12126.8
12724.8
13439.1
14242.5
15108.3
16009.8
16919.8
17810.7
18654.5
19423.1
20087.8
20620.4
20992.7
21177.1
21146.7
20875.6
20339.4
19515.3
18382.4
16922.4
15120
12963.4
10445.5
7564.37
4324.28
736.88
-3177.95
-7391.22
-11864.3
-16548.8
-21387
-26313.1
-31255.1
-36138.5
-40890.4
-45445.8
-49754.6
-53788.8
-57541.9
-60977.9
-63740.8
18454.6
16551.3
14812.1
13548.9
12734.7
12296.4
12169.2
12301.7
12652.5
13186.4
13872
14680
15581.8
16549.1
17553.1
18564.7
19554.2
20491.1
21344.7
22083.9
22677.7
23095.2
23306.1
23280.9
22991.1
22409.8
21511.7
20273.7
18675.6
16700.4
14335.2
11571.8
8408.06
4848.85
907.067
-3395.17
-8025.55
-12941
-18087.3
-23399.8
-28804.5
-34220.4
-39562.8
-44748.3
-49701.1
-54360.5
-58688.8
-62670.8
-66263.5
-69106
19078.7
17184.7
15464
14228.8
13452.1
13060.8
12990
13188.1
13613.1
14229.1
15003.9
15906.9
16908.2
17977.9
19085.4
20199.5
21288.2
22318.9
23258.3
24072.7
24728.6
25192.2
25430.8
25411.9
25104.6
24479.4
23508.6
22167.1
20432.4
18285.9
15713.5
12706
9261.19
5384.25
1089.4
-3599
-8645.31
-14001.9
-19608.9
-25394.6
-31276.8
-37165.3
-42965.4
-48583.1
-53931.8
-58940.3
-63561.3
-67771
-71519.5
-74441.1
19670
17785.6
16084.1
14877.8
14139.6
13796.2
13782.7
14047.1
14546.8
15245.2
16109.3
17107.2
18207.8
19379.4
20589.8
21805.8
22993.3
24117.2
25142
26031.5
26749.3
27259.4
27526.1
27514.6
27191.1
26523.7
25482.4
24039.7
22171.3
19857
17081.1
13833.8
10112.5
5922.81
1280.23
-3788.67
-9244.96
-15036.5
-21097.8
-27350.3
-33703.5
-40058.2
-46309.7
-52353.5
-58092.5
-63445.1
-68354.4
-72788.3
-76690.3
-79689.8
20227
18352.3
16670.1
15492.7
14792.8
14497.3
14540.7
14870.7
15444.2
16224
17175.8
18267
19464.9
20736.5
22047.7
23363.5
24647.7
25863
26971.6
27934.7
28713.7
29269.8
29564.7
29561.1
29222.7
28515.2
27406.2
25866.1
23868.7
21391.9
18418.9
14939
10949.3
6455.89
1475.38
-3963.46
-9818.49
-16033.3
-22536.7
-29243.3
-36055.1
-42863.5
-49554.4
-56013
-62131.8
-67819.3
-73009.2
-77661.3
-81712.4
-84787.8
20746.7
18881.4
17218.1
16069
15406.6
15157.6
15256.4
15650.1
16295.1
17153.5
18190.2
19371.3
20663.1
22030.9
23439.2
24851.1
26228.4
27531.8
28721.2
29755.5
30593.6
31194.3
31517
31521.7
31170
30424.9
29251.8
27619.3
25499
22867.4
19706.3
16004.3
11758.1
6974.13
1670.29
-4122.67
-10359.5
-16979.7
-23906.7
-31048.6
-38299.7
-45543.1
-52655.2
-59511.4
-65994.2
-72002.7
-77461.5
-82322.6
-86516.8
-89664.8
21225.2
19369
17723.7
16601.5
15974.9
15770.2
15921.6
16375.7
17088.5
18021.3
19138.3
20404.5
21784.9
23243.7
24743.7
26246.4
27711.7
29098.3
30364.1
31465.8
32360
33003.3
33352.6
33365.8
33002.1
32222.2
30989.7
29270.9
27035.7
24259.2
20921.8
17011.4
12524.5
7467.73
1860.1
-4265.69
-10861.6
-17863
-25188.4
-32739.9
-40404.5
-48057.2
-55565.7
-62796.1
-69621.6
-75932.2
-81644.1
-86702
-91030.8
-94247.2
21658.1
19810.2
18181.7
17084.6
16491.1
16327.5
16527.6
17037.8
17813.3
18815
20006.1
21350.9
22813.3
24356
25940.7
27527.1
29073.6
30537.2
31873.5
33037.6
33983.8
34666.7
35041.1
35062.5
34688.2
33877
32590.3
30792.6
28452.4
25542.9
22043.9
17942.3
13234.2
7926.79
2039.9
-4391.98
-11318.1
-18670.3
-26362.5
-34290.9
-42336.2
-50365.8
-58239.2
-65814.2
-72955.4
-79544.1
-85489.1
-90728.3
-95181.1
-98460.4
22040.5
20200.2
18586.8
17512.3
16948.7
16822.2
17066.2
17626.7
18458.7
19522.2
20780
22195.4
23731.3
25349.4
27010.1
28671.8
30291.3
31823.9
33223.7
34443.9
35437
36155.6
36552.7
36582
36198.7
35359.8
34024.9
32157.1
29723.1
26695.1
23051.6
18779.1
13873.3
8341.62
2204.82
-4501.05
-11722.9
-19389.3
-27409.9
-35676.2
-44062.5
-52429.9
-60630.4
-68514.3
-75938.3
-82776.5
-88930.4
-94332
-98896
-102232
22367.8
20534.1
18933.9
17878.9
17341.3
17247
17529.1
18133.3
19014.3
20131.5
21447.1
22923.6
24523.3
26206.8
27933.4
29660.2
31343
32935.5
34390.4
35659.3
36693.2
37443
37860
37896.3
37505.4
36642.9
35266.7
33338.4
30823.7
27693.5
23925.4
19505.2
14428.6
8703.12
2350.28
-4592.52
-12070.1
-20008.3
-28313.2
-36871.7
-45553.2
-54212.9
-62696.6
-70847.9
-78516.9
-85570.9
-91905.8
-97448.1
-102108
-105493
22635.5
20807.3
19218
18179.3
17663.2
17595.4
17909.1
18549.5
19470.9
20632.5
21995.8
23523
25175.3
26912.8
28693.7
30474.5
32209.5
33851.6
35352
36661.2
37728.9
38504.5
38938.1
38980.4
38583.5
37701.6
36291.6
34313.7
31732.5
28518.2
24647.4
20105.7
14888.3
9003.09
2472.12