/*--------------------------------*- C++ -*----------------------------------*\
| =========                 |                                                 |
| \\      /  F ield         | OpenFOAM: The Open Source CFD Toolbox           |
|  \\    /   O peration     | Version:  5.x                                   |
|   \\  /    A nd           | Web:      www.OpenFOAM.org                      |
|    \\/     M anipulation  |                                                 |
\*---------------------------------------------------------------------------*/
FoamFile
{
    version     2.0;
    format      ascii;
    class       volScalarField;
    location    "0.4";
    object      gradTz;
}
// * * * * * * * * * * * * * * * * * * * * * * * * * * * * * * * * * * * * * //

dimensions      [0 -1 0 1 0 0 0];

internalField   nonuniform List<scalar> 
25000
(
-6334.49
-6852.16
-7002.56
-7056.11
-7078.7
-7089.44
-7094.91
-7097.75
-7099.15
-7099.7
-7099.72
-7099.4
-7098.84
-7098.1
-7097.23
-7096.26
-7095.21
-7094.1
-7092.94
-7091.75
-7090.54
-7089.33
-7088.12
-7086.94
-7085.8
-7084.71
-7083.7
-7082.78
-7081.97
-7081.28
-7080.73
-7080.33
-7080.09
-7080.02
-7080.13
-7080.4
-7080.85
-7081.43
-7082.11
-7082.83
-7083.47
-7083.83
-7083.6
-7082.15
-7078.27
-7069.3
-7048.63
-6997.13
-6848.87
-6333.39
-6852.16
-7844.62
-8190.75
-8328.61
-8390.47
-8420.84
-8436.56
-8444.78
-8448.83
-8450.41
-8450.43
-8449.43
-8447.72
-8445.49
-8442.87
-8439.95
-8436.8
-8433.46
-8429.98
-8426.4
-8422.76
-8419.1
-8415.47
-8411.92
-8408.49
-8405.23
-8402.19
-8399.42
-8396.98
-8394.9
-8393.24
-8392.03
-8391.32
-8391.11
-8391.44
-8392.28
-8393.62
-8395.38
-8397.45
-8399.63
-8401.59
-8402.77
-8402.22
-8398.18
-8387.24
-8362.21
-8306.14
-8174.43
-7834.72
-6848.85
-7002.57
-8190.78
-8642.48
-8835.3
-8926.19
-8972.25
-8996.56
-9009.38
-9015.69
-9018.08
-9017.99
-9016.23
-9013.31
-9009.55
-9005.15
-9000.26
-8994.97
-8989.37
-8983.54
-8977.54
-8971.45
-8965.33
-8959.25
-8953.3
-8947.55
-8942.09
-8936.99
-8932.36
-8928.26
-8924.78
-8922
-8919.98
-8918.78
-8918.44
-8918.99
-8920.41
-8922.66
-8925.64
-8929.15
-8932.88
-8936.3
-8938.54
-8938.08
-8932.26
-8915.97
-8878.85
-8797.67
-8615.15
-8174.2
-6997.01
-7056.14
-8328.7
-8835.39
-9061.53
-9172.08
-9229.63
-9260.53
-9276.95
-9284.98
-9287.88
-9287.48
-9284.85
-9280.65
-9275.29
-9269.06
-9262.14
-9254.67
-9246.78
-9238.55
-9230.09
-9221.5
-9212.86
-9204.3
-9195.9
-9187.8
-9180.09
-9172.91
-9166.37
-9160.59
-9155.68
-9151.76
-9148.91
-9147.22
-9146.74
-9147.52
-9149.54
-9152.75
-9157
-9162.04
-9167.45
-9172.54
-9176.16
-9176.39
-9169.84
-9150.27
-9105.32
-9008.45
-8796.85
-8305.32
-7048.31
-7078.77
-8390.67
-8926.45
-9172.29
-9295.55
-9361
-9396.58
-9415.56
-9424.73
-9427.79
-9426.87
-9423.22
-9417.63
-9410.61
-9402.47
-9393.47
-9383.77
-9373.51
-9362.84
-9351.86
-9340.71
-9329.51
-9318.39
-9307.5
-9296.98
-9286.98
-9277.66
-9269.17
-9261.67
-9255.29
-9250.2
-9246.5
-9244.3
-9243.69
-9244.71
-9247.36
-9251.56
-9257.16
-9263.84
-9271.1
-9278.11
-9283.51
-9285.06
-9278.88
-9258
-9208.91
-9103.4
-8876.43
-8360.33
-7068.6
-7089.58
-8421.23
-8972.8
-9230.21
-9361.41
-9432
-9470.68
-9491.29
-9501.04
-9503.91
-9502.24
-9497.42
-9490.33
-9481.54
-9471.43
-9460.26
-9448.26
-9435.58
-9422.39
-9408.83
-9395.05
-9381.21
-9367.48
-9354.02
-9341.02
-9328.66
-9317.14
-9306.65
-9297.37
-9289.5
-9283.19
-9278.62
-9275.9
-9275.16
-9276.44
-9279.74
-9285
-9292.02
-9300.46
-9309.75
-9318.94
-9326.52
-9330.02
-9325.24
-9304.72
-9254.34
-9145.08
-8910.99
-8383.73
-7077.01
-7095.14
-8437.22
-8997.55
-9261.68
-9397.67
-9471.42
-9511.95
-9533.4
-9543.22
-9545.58
-9542.94
-9536.8
-9528.09
-9517.44
-9505.26
-9491.87
-9477.48
-9462.31
-9446.53
-9430.31
-9413.83
-9397.28
-9380.85
-9364.75
-9349.2
-9334.42
-9320.63
-9308.07
-9296.97
-9287.54
-9279.99
-9274.52
-9271.27
-9270.39
-9271.94
-9275.93
-9282.3
-9290.83
-9301.16
-9312.65
-9324.29
-9334.44
-9340.46
-9337.95
-9319.14
-9269.58
-9159.84
-8923.6
-8392.36
-7080.1
-7098.11
-8445.81
-9010.97
-9278.91
-9417.64
-9493.13
-9534.58
-9556.25
-9565.73
-9567.3
-9563.49
-9555.87
-9545.43
-9532.83
-9518.51
-9502.8
-9485.96
-9468.22
-9449.77
-9430.81
-9411.56
-9392.21
-9373.02
-9354.2
-9336.03
-9318.75
-9302.63
-9287.94
-9274.96
-9263.93
-9255.1
-9248.69
-9244.9
-9243.87
-9245.7
-9250.42
-9257.96
-9268.09
-9280.42
-9294.29
-9308.61
-9321.68
-9330.72
-9331.18
-9315.14
-9267.91
-9159.86
-8924.53
-8393.38
-7080.53
-7099.67
-8450.35
-9018.08
-9288.03
-9428.15
-9504.43
-9546.1
-9567.52
-9576.32
-9576.86
-9571.71
-9562.49
-9550.21
-9535.57
-9519.02
-9500.93
-9481.57
-9461.18
-9439.99
-9418.23
-9396.12
-9373.91
-9351.87
-9330.27
-9309.39
-9289.55
-9271.03
-9254.16
-9239.24
-9226.56
-9216.41
-9209.04
-9204.69
-9203.51
-9205.65
-9211.12
-9219.87
-9231.68
-9246.13
-9262.53
-9279.76
-9296.03
-9308.5
-9312.51
-9300
-9256.19
-9151.31
-8918.81
-8390.13
-7079.48
-7100.43
-8452.55
-9021.5
-9292.34
-9432.96
-9509.36
-9550.77
-9571.57
-9579.44
-9578.76
-9572.13
-9561.19
-9546.99
-9530.23
-9511.39
-9490.85
-9468.9
-9445.81
-9421.82
-9397.18
-9372.15
-9347.01
-9322.06
-9297.6
-9273.97
-9251.49
-9230.52
-9211.41
-9194.5
-9180.14
-9168.63
-9160.28
-9155.34
-9154.02
-9156.46
-9162.72
-9172.73
-9186.28
-9202.95
-9222.02
-9242.33
-9262.04
-9278.27
-9286.26
-9277.88
-9238.24
-9137.52
-8909.09
-8384.36
-7077.57
-7100.71
-8453.35
-9022.68
-9293.7
-9434.26
-9510.32
-9551.12
-9571.05
-9577.79
-9575.73
-9567.52
-9554.78
-9538.58
-9519.64
-9498.46
-9475.42
-9450.83
-9424.98
-9398.14
-9370.57
-9342.58
-9314.46
-9286.55
-9259.18
-9232.73
-9207.58
-9184.11
-9162.71
-9143.78
-9127.69
-9114.8
-9105.45
-9099.92
-9098.45
-9101.2
-9108.26
-9119.56
-9134.91
-9153.88
-9175.72
-9199.24
-9222.6
-9242.82
-9255.11
-9251.28
-9216.36
-9120.46
-8896.9
-8377.05
-7075.14
-7100.71
-8453.3
-9022.49
-9293.23
-9433.34
-9508.76
-9548.72
-9567.59
-9573.06
-9569.54
-9559.65
-9545.05
-9526.81
-9505.65
-9482.09
-9456.51
-9429.26
-9400.62
-9370.89
-9340.38
-9309.38
-9278.25
-9247.34
-9217.04
-9187.74
-9159.88
-9133.88
-9110.17
-9089.19
-9071.35
-9057.06
-9046.69
-9040.56
-9038.93
-9042
-9049.87
-9062.5
-9079.69
-9100.99
-9125.68
-9152.52
-9179.64
-9204.04
-9220.86
-9221.85
-9192
-9101.35
-8883.17
-8368.78
-7072.37
-7100.52
-8452.71
-9021.44
-9291.63
-9431.05
-9505.63
-9544.58
-9562.27
-9566.39
-9561.33
-9549.73
-9533.24
-9512.93
-9489.53
-9463.57
-9435.45
-9405.52
-9374.09
-9341.47
-9307.99
-9273.99
-9239.84
-9205.92
-9172.67
-9140.53
-9109.95
-9081.4
-9055.38
-9032.34
-9012.75
-8997.05
-8985.65
-8978.91
-8977.13
-8980.52
-8989.21
-9003.17
-9022.2
-9045.88
-9073.44
-9103.67
-9134.62
-9163.29
-9184.77
-9190.76
-9166.19
-9081.05
-8868.55
-8359.96
-7069.43
-7100.22
-8451.81
-9019.88
-9289.33
-9427.92
-9501.54
-9539.39
-9555.84
-9558.55
-9551.93
-9538.59
-9520.19
-9497.82
-9472.19
-9443.85
-9413.21
-9380.62
-9346.42
-9310.93
-9274.51
-9237.52
-9200.37
-9163.47
-9127.3
-9092.32
-9059.04
-9027.97
-8999.63
-8974.54
-8953.21
-8936.11
-8923.69
-8916.34
-8914.4
-8918.12
-8927.62
-8942.9
-8963.78
-8989.83
-9020.27
-9053.88
-9088.69
-9121.66
-9147.84
-9158.89
-9139.69
-9060.18
-8853.51
-8350.88
-7066.39
-7099.86
-8450.72
-9018.03
-9286.65
-9424.32
-9496.92
-9533.63
-9548.8
-9550.1
-9541.9
-9526.84
-9506.57
-9482.16
-9454.34
-9423.66
-9390.53
-9355.34
-9318.41
-9280.11
-9240.81
-9200.89
-9160.79
-9120.97
-9081.92
-9044.16
-9008.22
-8974.67
-8944.07
-8916.97
-8893.92
-8875.44
-8862.02
-8854.07
-8851.98
-8856
-8866.3
-8882.89
-8905.59
-8933.97
-8967.25
-9004.2
-9042.83
-9080.05
-9110.91
-9127
-9113.15
-9039.26
-8838.41
-8341.76
-7063.34
-7099.48
-8449.55
-9016.04
-9283.78
-9420.5
-9492.06
-9527.63
-9541.53
-9541.43
-9531.7
-9514.96
-9492.86
-9466.47
-9436.53
-9403.58
-9368.05
-9330.33
-9290.77
-9249.74
-9207.64
-9164.89
-9121.94
-9079.28
-9037.45
-8996.99
-8958.48
-8922.53
-8889.73
-8860.68
-8835.97
-8816.15
-8801.74
-8793.22
-8790.97
-8795.29
-8806.37
-8824.22
-8848.68
-8879.32
-8915.38
-8955.57
-8997.91
-9039.29
-9074.7
-9095.72
-9087.11
-9018.72
-8823.59
-8332.81
-7060.34
-7099.08
-8448.36
-9014.02
-9280.89
-9416.67
-9487.21
-9521.65
-9534.33
-9532.88
-9521.68
-9503.33
-9479.48
-9451.19
-9419.22
-9384.11
-9346.29
-9306.16
-9264.09
-9220.46
-9175.7
-9130.24
-9084.56
-9039.2
-8994.71
-8951.68
-8910.72
-8872.47
-8837.58
-8806.66
-8780.36
-8759.26
-8743.92
-8734.84
-8732.45
-8737.05
-8748.86
-8767.92
-8794.06
-8826.87
-8865.57
-8908.87
-8954.77
-9000.13
-9039.91
-9065.64
-9062.07
-8998.97
-8809.34
-8324.19
-7057.46
-7098.7
-8447.2
-9012.06
-9278.08
-9412.96
-9482.52
-9515.91
-9527.42
-9524.7
-9512.11
-9492.24
-9466.75
-9436.7
-9402.82
-9365.68
-9325.72
-9283.33
-9238.9
-9192.85
-9145.58
-9097.59
-9049.37
-9001.47
-8954.49
-8909.05
-8865.79
-8825.39
-8788.52
-8755.86
-8728.07
-8705.77
-8689.55
-8679.95
-8677.41
-8682.28
-8694.78
-8714.97
-8742.69
-8777.53
-8818.71
-8864.92
-8914.16
-8963.26
-9007.15
-9037.32
-9038.48
-8980.36
-8795.9
-8316.07
-7054.74
-7098.34
-8446.11
-9010.22
-9275.46
-9409.5
-9478.15
-9510.55
-9520.99
-9517.1
-9503.23
-9481.98
-9454.97
-9423.3
-9387.68
-9348.68
-9306.75
-9262.29
-9215.71
-9167.42
-9117.87
-9067.55
-9016.99
-8966.77
-8917.5
-8869.85
-8824.48
-8782.11
-8743.44
-8709.17
-8680.01
-8656.6
-8639.58
-8629.5
-8626.83
-8631.94
-8645.08
-8666.3
-8695.47
-8732.17
-8775.62
-8824.52
-8876.82
-8929.35
-8977.02
-9011.27
-9016.78
-8963.24
-8783.54
-8308.6
-7052.24
-7098.02
-8445.13
-9008.56
-9273.08
-9406.36
-9474.2
-9505.72
-9515.2
-9510.26
-9495.25
-9472.75
-9444.4
-9411.27
-9374.1
-9333.44
-9289.75
-9243.45
-9194.94
-9144.66
-9093.07
-9040.67
-8988.02
-8935.73
-8884.43
-8834.79
-8787.54
-8743.41
-8703.12
-8667.42
-8637.03
-8612.65
-8594.9
-8584.39
-8581.6
-8586.93
-8600.63
-8622.78
-8653.24
-8691.61
-8737.08
-8788.37
-8843.42
-8899.02
-8950.06
-8987.97
-8997.37
-8947.92
-8772.48
-8301.92
-7050.01
-7097.73
-8444.27
-9007.11
-9271.02
-9403.64
-9470.78
-9501.53
-9510.17
-9504.33
-9488.33
-9464.76
-9435.25
-9400.87
-9362.35
-9320.26
-9275.06
-9227.16
-9176.99
-9124.99
-9071.64
-9017.45
-8963
-8908.92
-8855.86
-8804.52
-8755.64
-8709.98
-8668.3
-8631.37
-8599.92
-8574.68
-8556.32
-8545.44
-8542.55
-8548.06
-8562.24
-8585.18
-8616.76
-8656.56
-8703.8
-8757.15
-8814.57
-8872.82
-8926.77
-8967.83
-8980.59
-8934.68
-8762.93
-8296.14
-7048.07
-7097.5
-8443.56
-9005.92
-9269.31
-9401.39
-9467.94
-9498.06
-9506.02
-9499.43
-9482.62
-9458.17
-9427.7
-9392.29
-9352.67
-9309.4
-9262.95
-9213.74
-9162.21
-9108.79
-9053.98
-8998.32
-8942.4
-8886.84
-8832.32
-8779.58
-8729.37
-8682.45
-8639.63
-8601.67
-8569.36
-8543.42
-8524.54
-8513.35
-8510.37
-8516.04
-8530.62
-8554.22
-8586.72
-8627.7
-8676.38
-8731.43
-8790.8
-8851.23
-8907.58
-8951.24
-8966.77
-8923.78
-8755.06
-8291.38
-7046.48
-7097.32
-8443.02
-9005
-9268
-9399.66
-9465.76
-9495.4
-9502.83
-9495.67
-9478.23
-9453.1
-9421.91
-9385.7
-9345.24
-9301.06
-9253.66
-9203.44
-9150.86
-9096.36
-9040.44
-8983.65
-8926.59
-8869.89
-8814.27
-8760.45
-8709.21
-8661.34
-8617.63
-8578.89
-8545.91
-8519.43
-8500.16
-8488.73
-8485.69
-8491.47
-8506.36
-8530.46
-8563.67
-8605.56
-8655.34
-8711.7
-8772.56
-8834.67
-8892.86
-8938.51
-8956.17
-8915.41
-8749.01
-8287.73
-7045.26
-7097.19
-8442.65
-9004.37
-9267.1
-9398.48
-9464.28
-9493.59
-9500.67
-9493.12
-9475.26
-9449.67
-9417.98
-9381.24
-9340.2
-9295.41
-9247.36
-9196.47
-9143.17
-9087.94
-9031.26
-8973.71
-8915.87
-8858.42
-8802.04
-8747.49
-8695.55
-8647.03
-8602.72
-8563.46
-8530.02
-8503.18
-8483.64
-8472.05
-8468.97
-8474.83
-8489.92
-8514.37
-8548.05
-8590.55
-8641.09
-8698.33
-8760.2
-8823.45
-8882.89
-8929.89
-8948.98
-8909.74
-8744.92
-8285.26
-7044.43
-7097.13
-8442.46
-9004.05
-9266.65
-9397.89
-9463.54
-9492.68
-9499.58
-9491.83
-9473.76
-9447.94
-9415.99
-9378.98
-9337.65
-9292.56
-9244.18
-9192.94
-9139.29
-9083.68
-9026.63
-8968.69
-8910.46
-8852.62
-8795.86
-8740.95
-8688.66
-8639.8
-8595.2
-8555.66
-8522
-8494.97
-8475.3
-8463.63
-8460.53
-8466.43
-8481.63
-8506.24
-8540.16
-8582.98
-8633.89
-8691.58
-8753.97
-8817.78
-8877.86
-8925.54
-8945.36
-8906.88
-8742.86
-8284.01
-7044.01
-7097.13
-8442.46
-9004.05
-9266.65
-9397.89
-9463.54
-9492.68
-9499.58
-9491.83
-9473.76
-9447.94
-9415.99
-9378.98
-9337.65
-9292.56
-9244.18
-9192.94
-9139.29
-9083.68
-9026.63
-8968.69
-8910.46
-8852.62
-8795.86
-8740.95
-8688.66
-8639.8
-8595.2
-8555.66
-8522
-8494.97
-8475.3
-8463.63
-8460.53
-8466.42
-8481.62
-8506.24
-8540.16
-8582.98
-8633.89
-8691.58
-8753.97
-8817.79
-8877.86
-8925.54
-8945.36
-8906.89
-8742.86
-8284.01
-7044.01
-7097.19
-8442.65
-9004.37
-9267.1
-9398.48
-9464.28
-9493.59
-9500.67
-9493.12
-9475.26
-9449.67
-9417.98
-9381.24
-9340.19
-9295.41
-9247.36
-9196.46
-9143.17
-9087.93
-9031.26
-8973.7
-8915.87
-8858.41
-8802.03
-8747.49
-8695.55
-8647.02
-8602.72
-8563.45
-8530.01
-8503.17
-8483.63
-8472.05
-8468.96
-8474.82
-8489.92
-8514.37
-8548.05
-8590.55
-8641.09
-8698.34
-8760.21
-8823.46
-8882.9
-8929.9
-8948.99
-8909.75
-8744.93
-8285.26
-7044.43
-7097.32
-8443.02
-9005
-9268
-9399.66
-9465.76
-9495.4
-9502.83
-9495.67
-9478.23
-9453.1
-9421.9
-9385.7
-9345.23
-9301.06
-9253.65
-9203.44
-9150.85
-9096.35
-9040.43
-8983.64
-8926.58
-8869.88
-8814.26
-8760.44
-8709.2
-8661.32
-8617.62
-8578.88
-8545.9
-8519.42
-8500.15
-8488.72
-8485.68
-8491.47
-8506.35
-8530.46
-8563.66
-8605.56
-8655.34
-8711.71
-8772.57
-8834.68
-8892.88
-8938.53
-8956.18
-8915.42
-8749.02
-8287.74
-7045.26
-7097.5
-8443.56
-9005.92
-9269.31
-9401.39
-9467.94
-9498.06
-9506.02
-9499.43
-9482.61
-9458.16
-9427.7
-9392.28
-9352.66
-9309.39
-9262.94
-9213.73
-9162.2
-9108.78
-9053.97
-8998.31
-8942.38
-8886.82
-8832.31
-8779.57
-8729.35
-8682.44
-8639.61
-8601.65
-8569.34
-8543.4
-8524.52
-8513.33
-8510.36
-8516.03
-8530.61
-8554.21
-8586.71
-8627.7
-8676.38
-8731.44
-8790.81
-8851.25
-8907.6
-8951.26
-8966.79
-8923.79
-8755.07
-8291.39
-7046.48
-7097.73
-8444.27
-9007.11
-9271.02
-9403.64
-9470.77
-9501.53
-9510.17
-9504.33
-9488.32
-9464.75
-9435.24
-9400.86
-9362.35
-9320.25
-9275.05
-9227.15
-9176.98
-9124.98
-9071.62
-9017.43
-8962.99
-8908.9
-8855.84
-8804.5
-8755.62
-8709.96
-8668.28
-8631.35
-8599.9
-8574.66
-8556.3
-8545.42
-8542.53
-8548.04
-8562.23
-8585.18
-8616.76
-8656.56
-8703.8
-8757.16
-8814.58
-8872.84
-8926.79
-8967.85
-8980.61
-8934.7
-8762.94
-8296.15
-7048.08
-7098.02
-8445.13
-9008.56
-9273.08
-9406.36
-9474.2
-9505.72
-9515.2
-9510.26
-9495.24
-9472.74
-9444.4
-9411.26
-9374.09
-9333.43
-9289.74
-9243.43
-9194.93
-9144.64
-9093.05
-9040.65
-8988
-8935.71
-8884.4
-8834.77
-8787.52
-8743.38
-8703.09
-8667.4
-8637.01
-8612.62
-8594.88
-8584.37
-8581.59
-8586.92
-8600.62
-8622.77
-8653.23
-8691.61
-8737.09
-8788.38
-8843.44
-8899.04
-8950.08
-8987.99
-8997.39
-8947.94
-8772.5
-8301.93
-7050.01
-7098.34
-8446.11
-9010.22
-9275.46
-9409.5
-9478.15
-9510.55
-9520.99
-9517.1
-9503.22
-9481.97
-9454.97
-9423.29
-9387.67
-9348.67
-9306.73
-9262.28
-9215.69
-9167.4
-9117.85
-9067.53
-9016.97
-8966.75
-8917.48
-8869.82
-8824.46
-8782.08
-8743.41
-8709.14
-8679.98
-8656.58
-8639.56
-8629.48
-8626.81
-8631.93
-8645.06
-8666.29
-8695.47
-8732.17
-8775.63
-8824.53
-8876.84
-8929.38
-8977.04
-9011.3
-9016.81
-8963.26
-8783.57
-8308.62
-7052.25
-7098.7
-8447.2
-9012.06
-9278.08
-9412.96
-9482.52
-9515.91
-9527.42
-9524.7
-9512.1
-9492.24
-9466.74
-9436.69
-9402.81
-9365.67
-9325.7
-9283.31
-9238.89
-9192.83
-9145.56
-9097.57
-9049.34
-9001.45
-8954.46
-8909.02
-8865.76
-8825.36
-8788.49
-8755.83
-8728.04
-8705.74
-8689.53
-8679.93
-8677.39
-8682.27
-8694.77
-8714.96
-8742.69
-8777.54
-8818.71
-8864.94
-8914.18
-8963.29
-9007.18
-9037.36
-9038.51
-8980.39
-8795.93
-8316.09
-7054.75
-7099.08
-8448.36
-9014.02
-9280.89
-9416.67
-9487.21
-9521.65
-9534.33
-9532.88
-9521.67
-9503.32
-9479.47
-9451.18
-9419.21
-9384.1
-9346.28
-9306.14
-9264.07
-9220.44
-9175.68
-9130.21
-9084.54
-9039.18
-8994.68
-8951.65
-8910.69
-8872.45
-8837.55
-8806.63
-8780.33
-8759.23
-8743.9
-8734.82
-8732.42
-8737.03
-8748.85
-8767.91
-8794.06
-8826.88
-8865.58
-8908.88
-8954.79
-9000.15
-9039.94
-9065.68
-9062.1
-8999
-8809.36
-8324.21
-7057.47
-7099.48
-8449.55
-9016.04
-9283.78
-9420.5
-9492.06
-9527.63
-9541.53
-9541.43
-9531.7
-9514.96
-9492.85
-9466.46
-9436.52
-9403.57
-9368.04
-9330.31
-9290.75
-9249.72
-9207.62
-9164.87
-9121.91
-9079.26
-9037.42
-8996.96
-8958.46
-8922.5
-8889.7
-8860.65
-8835.94
-8816.12
-8801.72
-8793.2
-8790.95
-8795.28
-8806.35
-8824.21
-8848.68
-8879.33
-8915.39
-8955.58
-8997.93
-9039.32
-9074.74
-9095.75
-9087.15
-9018.75
-8823.62
-8332.83
-7060.35
-7099.87
-8450.72
-9018.03
-9286.65
-9424.32
-9496.92
-9533.63
-9548.8
-9550.09
-9541.9
-9526.84
-9506.56
-9482.15
-9454.33
-9423.65
-9390.52
-9355.32
-9318.4
-9280.09
-9240.79
-9200.87
-9160.77
-9120.94
-9081.89
-9044.13
-9008.19
-8974.65
-8944.04
-8916.94
-8893.9
-8875.42
-8861.99
-8854.05
-8851.96
-8855.98
-8866.29
-8882.88
-8905.59
-8933.97
-8967.26
-9004.21
-9042.85
-9080.08
-9110.94
-9127.04
-9113.19
-9039.29
-8838.44
-8341.78
-7063.34
-7100.22
-8451.81
-9019.88
-9289.33
-9427.92
-9501.54
-9539.39
-9555.84
-9558.55
-9551.92
-9538.58
-9520.19
-9497.81
-9472.18
-9443.84
-9413.19
-9380.6
-9346.4
-9310.91
-9274.49
-9237.5
-9200.34
-9163.45
-9127.27
-9092.29
-9059.01
-9027.94
-8999.6
-8974.52
-8953.18
-8936.09
-8923.67
-8916.32
-8914.39
-8918.1
-8927.61
-8942.9
-8963.78
-8989.83
-9020.28
-9053.89
-9088.72
-9121.69
-9147.87
-9158.93
-9139.73
-9060.21
-8853.53
-8350.9
-7066.39
-7100.52
-8452.71
-9021.45
-9291.63
-9431.05
-9505.63
-9544.58
-9562.27
-9566.39
-9561.33
-9549.73
-9533.23
-9512.92
-9489.52
-9463.56
-9435.44
-9405.51
-9374.08
-9341.46
-9307.97
-9273.97
-9239.81
-9205.9
-9172.65
-9140.5
-9109.92
-9081.38
-9055.35
-9032.31
-9012.72
-8997.03
-8985.63
-8978.89
-8977.11
-8980.51
-8989.2
-9003.16
-9022.2
-9045.89
-9073.46
-9103.68
-9134.65
-9163.32
-9184.8
-9190.8
-9166.22
-9081.08
-8868.58
-8359.98
-7069.43
-7100.71
-8453.3
-9022.49
-9293.23
-9433.35
-9508.76
-9548.72
-9567.59
-9573.06
-9569.54
-9559.65
-9545.05
-9526.81
-9505.64
-9482.08
-9456.5
-9429.24
-9400.61
-9370.88
-9340.36
-9309.36
-9278.23
-9247.32
-9217.01
-9187.72
-9159.86
-9133.85
-9110.15
-9089.17
-9071.33
-9057.04
-9046.67
-9040.54
-9038.92
-9041.99
-9049.87
-9062.5
-9079.69
-9101
-9125.69
-9152.54
-9179.67
-9204.07
-9220.89
-9221.89
-9192.03
-9101.38
-8883.2
-8368.8
-7072.38
-7100.71
-8453.35
-9022.69
-9293.7
-9434.26
-9510.32
-9551.12
-9571.05
-9577.79
-9575.73
-9567.52
-9554.78
-9538.58
-9519.63
-9498.45
-9475.41
-9450.82
-9424.97
-9398.12
-9370.56
-9342.56
-9314.44
-9286.53
-9259.16
-9232.71
-9207.56
-9184.09
-9162.69
-9143.76
-9127.67
-9114.79
-9105.43
-9099.9
-9098.43
-9101.19
-9108.25
-9119.56
-9134.92
-9153.88
-9175.73
-9199.26
-9222.62
-9242.85
-9255.14
-9251.31
-9216.39
-9120.48
-8896.92
-8377.07
-7075.14
-7100.43
-8452.55
-9021.5
-9292.34
-9432.97
-9509.36
-9550.78
-9571.58
-9579.44
-9578.76
-9572.13
-9561.19
-9546.99
-9530.22
-9511.38
-9490.84
-9468.89
-9445.8
-9421.8
-9397.16
-9372.14
-9347
-9322.05
-9297.59
-9273.95
-9251.47
-9230.51
-9211.39
-9194.49
-9180.12
-9168.62
-9160.27
-9155.33
-9154.01
-9156.46
-9162.71
-9172.73
-9186.28
-9202.96
-9222.03
-9242.34
-9262.07
-9278.29
-9286.29
-9277.91
-9238.27
-9137.55
-8909.11
-8384.38
-7077.58
-7099.67
-8450.35
-9018.08
-9288.03
-9428.15
-9504.43
-9546.11
-9567.52
-9576.33
-9576.86
-9571.71
-9562.49
-9550.21
-9535.56
-9519.02
-9500.92
-9481.56
-9461.17
-9439.98
-9418.22
-9396.11
-9373.9
-9351.86
-9330.25
-9309.38
-9289.53
-9271.02
-9254.15
-9239.22
-9226.55
-9216.4
-9209.03
-9204.68
-9203.51
-9205.64
-9211.12
-9219.87
-9231.68
-9246.14
-9262.55
-9279.78
-9296.05
-9308.52
-9312.53
-9300.03
-9256.21
-9151.33
-8918.83
-8390.14
-7079.49
-7098.11
-8445.81
-9010.97
-9278.91
-9417.64
-9493.14
-9534.58
-9556.26
-9565.73
-9567.3
-9563.49
-9555.87
-9545.43
-9532.82
-9518.5
-9502.8
-9485.96
-9468.21
-9449.76
-9430.8
-9411.55
-9392.2
-9373.01
-9354.19
-9336.01
-9318.73
-9302.62
-9287.93
-9274.95
-9263.92
-9255.09
-9248.68
-9244.89
-9243.86
-9245.7
-9250.42
-9257.96
-9268.09
-9280.43
-9294.3
-9308.63
-9321.7
-9330.74
-9331.21
-9315.16
-9267.93
-9159.88
-8924.55
-8393.39
-7080.53
-7095.14
-8437.22
-8997.55
-9261.69
-9397.68
-9471.42
-9511.95
-9533.4
-9543.22
-9545.59
-9542.94
-9536.8
-9528.09
-9517.44
-9505.26
-9491.86
-9477.48
-9462.31
-9446.52
-9430.3
-9413.82
-9397.27
-9380.84
-9364.74
-9349.19
-9334.41
-9320.62
-9308.06
-9296.96
-9287.53
-9279.99
-9274.51
-9271.27
-9270.38
-9271.93
-9275.93
-9282.3
-9290.84
-9301.17
-9312.66
-9324.3
-9334.45
-9340.48
-9337.97
-9319.17
-9269.6
-9159.86
-8923.61
-8392.37
-7080.11
-7089.58
-8421.23
-8972.81
-9230.22
-9361.42
-9432.01
-9470.69
-9491.3
-9501.04
-9503.91
-9502.24
-9497.42
-9490.33
-9481.54
-9471.43
-9460.26
-9448.26
-9435.58
-9422.39
-9408.82
-9395.05
-9381.21
-9367.47
-9354.01
-9341.01
-9328.66
-9317.14
-9306.64
-9297.37
-9289.49
-9283.19
-9278.61
-9275.9
-9275.16
-9276.43
-9279.74
-9285
-9292.02
-9300.47
-9309.75
-9318.95
-9326.54
-9330.04
-9325.26
-9304.74
-9254.36
-9145.1
-8911
-8383.74
-7077.01
-7078.77
-8390.68
-8926.45
-9172.3
-9295.56
-9361
-9396.59
-9415.57
-9424.74
-9427.8
-9426.87
-9423.23
-9417.64
-9410.61
-9402.48
-9393.47
-9383.77
-9373.51
-9362.84
-9351.86
-9340.71
-9329.5
-9318.39
-9307.49
-9296.97
-9286.98
-9277.65
-9269.16
-9261.66
-9255.29
-9250.19
-9246.49
-9244.3
-9243.69
-9244.71
-9247.36
-9251.57
-9257.16
-9263.85
-9271.11
-9278.12
-9283.52
-9285.07
-9278.9
-9258.01
-9208.92
-9103.42
-8876.44
-8360.34
-7068.6
-7056.14
-8328.7
-8835.39
-9061.53
-9172.09
-9229.64
-9260.53
-9276.95
-9284.98
-9287.88
-9287.48
-9284.85
-9280.65
-9275.29
-9269.06
-9262.14
-9254.67
-9246.78
-9238.55
-9230.09
-9221.5
-9212.86
-9204.29
-9195.9
-9187.79
-9180.09
-9172.91
-9166.37
-9160.59
-9155.68
-9151.76
-9148.91
-9147.21
-9146.74
-9147.52
-9149.54
-9152.75
-9157
-9162.04
-9167.46
-9172.55
-9176.17
-9176.4
-9169.85
-9150.28
-9105.33
-9008.46
-8796.86
-8305.33
-7048.31
-7002.57
-8190.78
-8642.48
-8835.31
-8926.19
-8972.25
-8996.56
-9009.39
-9015.7
-9018.09
-9017.99
-9016.23
-9013.31
-9009.55
-9005.15
-9000.26
-8994.97
-8989.37
-8983.54
-8977.54
-8971.44
-8965.32
-8959.25
-8953.29
-8947.54
-8942.08
-8936.99
-8932.35
-8928.26
-8924.78
-8922
-8919.98
-8918.78
-8918.44
-8918.99
-8920.41
-8922.66
-8925.64
-8929.15
-8932.89
-8936.31
-8938.54
-8938.09
-8932.26
-8915.98
-8878.86
-8797.67
-8615.16
-8174.2
-6997.02
-6852.16
-7844.62
-8190.75
-8328.61
-8390.47
-8420.84
-8436.57
-8444.79
-8448.83
-8450.41
-8450.43
-8449.43
-8447.72
-8445.49
-8442.87
-8439.95
-8436.8
-8433.46
-8429.98
-8426.39
-8422.76
-8419.1
-8415.47
-8411.92
-8408.49
-8405.23
-8402.19
-8399.42
-8396.97
-8394.9
-8393.24
-8392.03
-8391.31
-8391.11
-8391.44
-8392.28
-8393.62
-8395.38
-8397.45
-8399.63
-8401.59
-8402.78
-8402.22
-8398.18
-8387.25
-8362.22
-8306.15
-8174.44
-7834.73
-6848.85
-6334.49
-6852.16
-7002.56
-7056.11
-7078.7
-7089.44
-7094.91
-7097.75
-7099.15
-7099.7
-7099.72
-7099.4
-7098.83
-7098.09
-7097.23
-7096.26
-7095.21
-7094.1
-7092.94
-7091.75
-7090.54
-7089.32
-7088.12
-7086.94
-7085.8
-7084.71
-7083.7
-7082.78
-7081.97
-7081.28
-7080.73
-7080.32
-7080.09
-7080.02
-7080.13
-7080.41
-7080.85
-7081.43
-7082.11
-7082.83
-7083.47
-7083.84
-7083.6
-7082.15
-7078.27
-7069.3
-7048.64
-6997.14
-6848.87
-6333.39
-1402.5
-2232.08
-2527.07
-2650.9
-2710.3
-2741.82
-2759.83
-2770.71
-2777.56
-2782.04
-2785.07
-2787.19
-2788.75
-2789.95
-2790.95
-2791.82
-2792.65
-2793.47
-2794.32
-2795.22
-2796.17
-2797.2
-2798.31
-2799.49
-2800.74
-2802.06
-2803.43
-2804.83
-2806.25
-2807.66
-2809.03
-2810.31
-2811.47
-2812.44
-2813.16
-2813.56
-2813.52
-2812.93
-2811.61
-2809.33
-2805.73
-2800.25
-2791.97
-2779.25
-2759
-2724.9
-2662.6
-2535.62
-2237.29
-1404.25
-2232.08
-3945.73
-4661.23
-4989.99
-5155.49
-5245.57
-5297.79
-5329.6
-5349.76
-5362.98
-5371.94
-5378.24
-5382.86
-5386.45
-5389.42
-5392.06
-5394.54
-5397.01
-5399.56
-5402.26
-5405.14
-5408.24
-5411.57
-5415.13
-5418.91
-5422.88
-5427.01
-5431.25
-5435.53
-5439.79
-5443.91
-5447.78
-5451.26
-5454.2
-5456.39
-5457.59
-5457.51
-5455.77
-5451.87
-5445.09
-5434.4
-5418.16
-5393.7
-5356.35
-5297.4
-5199.51
-5025.27
-4687
-3961.42
-2237.35
-2527.07
-4661.22
-5627.12
-6098.72
-6346.42
-6485.15
-6567.11
-6617.69
-6650.03
-6671.39
-6685.94
-6696.22
-6703.81
-6709.73
-6714.65
-6719.02
-6723.17
-6727.31
-6731.59
-6736.11
-6740.96
-6746.17
-6751.77
-6757.76
-6764.11
-6770.79
-6777.74
-6784.87
-6792.08
-6799.24
-6806.18
-6812.7
-6818.58
-6823.54
-6827.25
-6829.33
-6829.27
-6826.47
-6820.1
-6809.01
-6791.54
-6765.11
-6725.53
-6665.63
-6572.35
-6420.48
-6158.08
-5670.48
-4687.62
-2535.93
-2650.88
-4989.95
-6098.68
-6663.07
-6969.75
-7146.05
-7252.24
-7318.72
-7361.7
-7390.32
-7409.97
-7423.95
-7434.33
-7442.49
-7449.31
-7455.42
-7461.24
-7467.07
-7473.12
-7479.52
-7486.39
-7493.78
-7501.72
-7510.21
-7519.22
-7528.7
-7538.57
-7548.69
-7558.93
-7569.09
-7578.94
-7588.22
-7596.59
-7603.67
-7609.01
-7612.05
-7612.13
-7608.4
-7599.75
-7584.63
-7560.84
-7525.02
-7471.78
-7392.06
-7269.8
-7074.87
-6747.31
-6160.22
-5027.43
-2663.47
-2710.27
-5155.39
-6346.3
-6969.65
-7317.1
-7521.17
-7646.25
-7725.63
-7777.54
-7812.44
-7836.6
-7853.93
-7866.91
-7877.2
-7885.88
-7893.71
-7901.22
-7908.78
-7916.64
-7925
-7933.96
-7943.61
-7953.99
-7965.09
-7976.88
-7989.28
-8002.18
-8015.42
-8028.82
-8042.12
-8055.03
-8067.19
-8078.18
-8087.52
-8094.6
-8098.75
-8099.11
-8094.62
-8083.9
-8065.09
-8035.52
-7991.21
-7925.88
-7829.17
-7683.07
-7454.62
-7079.87
-6426.82
-5204.43
-2726.73
-2741.75
-5245.39
-6484.89
-7145.77
-7520.97
-7745.06
-7884.43
-7974
-8033.19
-8073.37
-8101.44
-8121.75
-8137.11
-8149.41
-8159.89
-8169.44
-8178.66
-8187.99
-8197.74
-8208.12
-8219.28
-8231.3
-8244.23
-8258.07
-8272.77
-8288.23
-8304.32
-8320.85
-8337.56
-8354.17
-8370.29
-8385.5
-8399.28
-8411.02
-8420.01
-8425.41
-8426.21
-8421.15
-8408.62
-8386.46
-8351.66
-8299.74
-8223.81
-8112.64
-7947.05
-7692.54
-7283.28
-6585.35
-5306.58
-2762.3
-2759.72
-5297.48
-6566.64
-7251.68
-7645.71
-7884.06
-8034.06
-8131.48
-8196.5
-8241.03
-8272.43
-8295.37
-8312.91
-8327.1
-8339.33
-8350.59
-8361.55
-8372.71
-8384.42
-8396.91
-8410.37
-8424.88
-8440.5
-8457.22
-8474.99
-8493.68
-8513.13
-8533.11
-8553.33
-8573.43
-8592.96
-8611.4
-8628.14
-8642.45
-8653.52
-8660.34
-8661.76
-8656.32
-8642.22
-8617.06
-8577.53
-8518.81
-8433.56
-8310.01
-8128.32
-7853.19
-7417.98
-6688.13
-5371.47
-2784.57
-2770.53
-5329.1
-6616.9
-7317.74
-7724.58
-7973.05
-8130.86
-8234.28
-8303.88
-8351.97
-8386.19
-8411.43
-8430.95
-8446.93
-8460.87
-8473.84
-8486.57
-8499.62
-8513.36
-8528.07
-8543.94
-8561.07
-8579.52
-8599.28
-8620.27
-8642.36
-8665.36
-8688.99
-8712.91
-8736.69
-8759.82
-8781.69
-8801.58
-8818.66
-8831.98
-8840.4
-8842.61
-8836.99
-8821.55
-8793.69
-8749.87
-8685.02
-8591.5
-8457.2
-8261.91
-7969.96
-7514.4
-6760.58
-5416.61
-2799.92
-2777.3
-5349
-6648.82
-7360.13
-7775.76
-8031.39
-8194.94
-8302.9
-8376.1
-8427.08
-8463.67
-8490.94
-8512.27
-8529.94
-8545.55
-8560.23
-8574.78
-8589.77
-8605.64
-8622.66
-8641.05
-8660.93
-8682.36
-8705.31
-8729.7
-8755.37
-8782.1
-8809.57
-8837.39
-8865.05
-8891.98
-8917.47
-8940.71
-8960.74
-8976.48
-8986.68
-8989.85
-8984.23
-8967.66
-8937.37
-8889.63
-8819.18
-8718.18
-8574.33
-8367.22
-8061.04
-7588.78
-6815.87
-5450.74
-2811.47
-2781.67
-5361.87
-6669.61
-7387.97
-7809.68
-8070.4
-8238.15
-8349.55
-8425.58
-8478.91
-8517.52
-8546.58
-8569.56
-8588.85
-8606.11
-8622.51
-8638.9
-8655.9
-8673.96
-8693.39
-8714.42
-8737.18
-8761.71
-8788
-8815.95
-8845.38
-8876.01
-8907.51
-8939.41
-8971.16
-9002.08
-9031.38
-9058.14
-9081.3
-9099.64
-9111.77
-9116.06
-9110.61
-9093.1
-9060.6
-9009.23
-8933.59
-8825.7
-8673.16
-8455.47
-8136.79
-7650.16
-6861.16
-5478.54
-2820.85
-2784.55
-5370.39
-6683.43
-7406.6
-7832.54
-8096.92
-8267.76
-8381.78
-8460.04
-8515.3
-8555.63
-8586.28
-8610.81
-8631.65
-8650.52
-8668.65
-8686.92
-8705.99
-8726.31
-8748.25
-8772.01
-8797.75
-8825.52
-8855.29
-8886.94
-8920.27
-8954.98
-8990.67
-9026.82
-9062.82
-9097.91
-9131.19
-9161.64
-9188.09
-9209.18
-9223.39
-9228.95
-9223.81
-9205.5
-9170.97
-9116.19
-9035.67
-8921.34
-8760.71
-8533.28
-8203.24
-7703.72
-6900.5
-5502.61
-2828.95
-2786.48
-5376.12
-6692.77
-7419.27
-7848.2
-8115.21
-8288.36
-8404.39
-8484.43
-8541.29
-8583.11
-8615.2
-8641.17
-8663.52
-8683.99
-8703.85
-8724.03
-8745.19
-8767.85
-8792.34
-8818.93
-8847.75
-8878.85
-8912.2
-8947.68
-8985.03
-9023.95
-9063.97
-9104.52
-9144.91
-9184.31
-9221.71
-9256
-9285.87
-9309.84
-9326.25
-9333.2
-9328.48
-9309.51
-9273.08
-9215.09
-9129.92
-9009.45
-8841.16
-8604.57
-8263.92
-7752.48
-6936.22
-5524.41
-2836.28
-2787.8
-5380.04
-6699.18
-7428.01
-7859.07
-8128.01
-8302.9
-8420.5
-8501.98
-8560.2
-8603.32
-8636.73
-8664.07
-8687.86
-8709.91
-8731.5
-8753.6
-8776.9
-8801.91
-8829.03
-8858.49
-8890.45
-8924.96
-8961.98
-9001.36
-9042.83
-9086.04
-9130.49
-9175.54
-9220.43
-9264.24
-9305.87
-9344.09
-9377.48
-9404.43
-9423.14
-9431.56
-9427.37
-9407.83
-9369.63
-9308.56
-9218.93
-9092.56
-8916.93
-8671.59
-8320.86
-7798.15
-6969.62
-5544.76
-2843.12
-2788.71
-5382.76
-6703.65
-7434.13
-7866.75
-8137.12
-8313.34
-8432.18
-8514.85
-8574.23
-8618.52
-8653.15
-8681.77
-8706.97
-8730.56
-8753.88
-8777.89
-8803.33
-8830.73
-8860.48
-8892.84
-8927.97
-8965.93
-9006.65
-9049.97
-9095.61
-9143.16
-9192.09
-9241.69
-9291.13
-9339.39
-9385.31
-9427.52
-9464.48
-9494.46
-9515.52
-9525.49
-9521.89
-9501.88
-9462.01
-9397.99
-9304.05
-9171.99
-8989.28
-8735.52
-8375.12
-7841.62
-7001.37
-5564.11
-2849.61
-2789.36
-5384.68
-6706.81
-7438.49
-7872.25
-8143.71
-8320.97
-8440.82
-8524.48
-8584.87
-8630.22
-8665.97
-8695.82
-8722.37
-8747.47
-8772.48
-8798.39
-8825.95
-8855.72
-8888.09
-8923.34
-8961.64
-9003.03
-9047.44
-9094.7
-9144.49
-9196.38
-9249.76
-9303.91
-9357.89
-9410.61
-9460.8
-9507
-9547.54
-9580.57
-9604.01
-9615.55
-9612.6
-9592.17
-9550.72
-9483.87
-9385.79
-9248.24
-9058.7
-8796.83
-8427.12
-7883.26
-7031.78
-5582.62
-2855.83
-2789.82
-5386.06
-6709.09
-7441.65
-7876.26
-8148.56
-8326.65
-8447.33
-8531.84
-8593.12
-8639.43
-8676.22
-8707.24
-8735.08
-8761.65
-8788.3
-8816.06
-8845.7
-8877.78
-8912.73
-8950.82
-8992.23
-9036.98
-9085.02
-9136.15
-9190.03
-9246.17
-9303.95
-9362.55
-9421
-9478.11
-9532.51