/*--------------------------------*- C++ -*----------------------------------*\
| =========                 |                                                 |
| \\      /  F ield         | OpenFOAM: The Open Source CFD Toolbox           |
|  \\    /   O peration     | Version:  5.x                                   |
|   \\  /    A nd           | Web:      www.OpenFOAM.org                      |
|    \\/     M anipulation  |                                                 |
\*---------------------------------------------------------------------------*/
FoamFile
{
    version     2.0;
    format      ascii;
    class       volScalarField;
    location    "0.4";
    object      T;
}
// * * * * * * * * * * * * * * * * * * * * * * * * * * * * * * * * * * * * * //

dimensions      [0 0 0 1 0 0 0];

internalField   nonuniform List<scalar> 
25000
(
300.704
301.286
301.608
301.825
301.99
302.127
302.247
302.357
302.463
302.567
302.672
302.781
302.893
303.01
303.133
303.262
303.398
303.539
303.686
303.839
303.995
304.155
304.316
304.477
304.637
304.793
304.943
305.086
305.218
305.338
305.442
305.527
305.592
305.633
305.647
305.632
305.586
305.506
305.39
305.237
305.044
304.812
304.538
304.222
303.863
303.455
302.993
302.458
301.802
300.878
301.286
302.675
303.55
304.172
304.657
305.061
305.419
305.749
306.065
306.378
306.694
307.018
307.355
307.708
308.078
308.466
308.874
309.299
309.742
310.2
310.671
311.15
311.635
312.121
312.601
313.071
313.524
313.954
314.352
314.712
315.024
315.282
315.477
315.6
315.644
315.6
315.461
315.221
314.873
314.412
313.834
313.136
312.314
311.365
310.286
309.067
307.688
306.109
304.229
301.807
301.607
303.547
304.862
305.838
306.617
307.277
307.864
308.41
308.935
309.456
309.982
310.524
311.088
311.678
312.297
312.947
313.63
314.343
315.085
315.852
316.641
317.445
318.258
319.072
319.878
320.666
321.427
322.147
322.815
323.419
323.944
324.377
324.705
324.913
324.987
324.915
324.684
324.282
323.701
322.93
321.964
320.797
319.424
317.841
316.042
314.015
311.737
309.155
306.155
302.481
301.821
304.162
305.828
307.107
308.152
309.05
309.858
310.614
311.346
312.073
312.812
313.573
314.365
315.195
316.067
316.984
317.947
318.952
319.999
321.083
322.196
323.331
324.479
325.628
326.767
327.881
328.955
329.974
330.919
331.773
332.516
333.13
333.594
333.89
333.998
333.898
333.575
333.012
332.194
331.111
329.752
328.11
326.181
323.959
321.439
318.609
315.445
311.895
307.848
303.057
301.981
304.633
306.586
308.127
309.41
310.53
311.548
312.51
313.445
314.379
315.33
316.312
317.337
318.411
319.542
320.731
321.979
323.285
324.645
326.052
327.498
328.973
330.465
331.96
333.441
334.89
336.288
337.613
338.844
339.956
340.925
341.726
342.334
342.722
342.866
342.742
342.326
341.6
340.543
339.142
337.384
335.262
332.768
329.9
326.654
323.02
318.978
314.483
309.43
303.59
302.111
305.016
307.211
308.981
310.48
311.807
313.027
314.187
315.324
316.464
317.628
318.835
320.096
321.42
322.815
324.283
325.825
327.439
329.12
330.861
332.65
334.476
336.324
338.175
340.009
341.805
343.538
345.181
346.708
348.089
349.293
350.29
351.047
351.533
351.718
351.57
351.064
350.172
348.873
347.148
344.984
342.371
339.304
335.781
331.799
327.356
322.436
317.003
310.964
304.105
302.22
305.341
307.747
309.721
311.419
312.94
314.352
315.707
317.042
318.388
319.769
321.202
322.704
324.284
325.949
327.704
329.549
331.48
333.493
335.577
337.722
339.91
342.125
344.345
346.546
348.701
350.781
352.756
354.591
356.251
357.701
358.902
359.817
360.408
360.637
360.469
359.871
358.812
357.266
355.212
352.634
349.521
345.868
341.677
336.948
331.685
325.881
319.507
312.484
304.616
302.315
305.627
308.221
310.38
312.262
313.967
315.565
317.11
318.643
320.195
321.793
323.457
325.204
327.045
328.989
331.038
333.194
335.452
337.807
340.247
342.758
345.322
347.917
350.519
353.099
355.627
358.068
360.386
362.542
364.494
366.199
367.615
368.696
369.397
369.677
369.491
368.802
367.575
365.778
363.388
360.386
356.761
352.511
347.637
342.148
336.052
329.35
322.025
314.012
305.128
302.401
305.885
308.65
310.981
313.036
314.916
316.695
318.427
320.155
321.914
323.731
325.629
327.626
329.734
331.962
334.313
336.788
339.384
342.091
344.897
347.786
350.737
353.725
356.722
359.695
362.609
365.424
368.098
370.587
372.842
374.815
376.454
377.71
378.529
378.863
378.663
377.884
376.486
374.435
371.702
368.267
364.121
359.26
353.69
347.425
340.479
332.865
324.575
315.559
305.646
302.48
306.122
309.047
311.538
313.757
315.806
317.76
319.676
321.599
323.564
325.603
327.738
329.988
332.368
334.886
337.546
340.349
343.289
346.358
349.54
352.818
356.167
359.559
362.963
366.341
369.653
372.854
375.897
378.73
381.3
383.549
385.422
386.86
387.804
388.197
387.985
387.118
385.549
383.239
380.157
376.283
371.604
366.12
359.841
352.785
344.975
336.432
327.163
317.127
306.171
302.554
306.343
309.417
312.062
314.437
316.65
318.775
320.872
322.987
325.159
327.42
329.793
332.301
334.956
337.769
340.744
343.88
347.172
350.61
354.177
357.851
361.608
365.414
369.234
373.028
376.748
380.346
383.767
386.955
389.848
392.384
394.498
396.125
397.2
397.657
397.437
396.482
394.741
392.17
388.736
384.415
379.196
373.08
366.08
358.221
349.534
340.049
329.785
318.716
306.704
302.623
306.551
309.767
312.557
315.083
317.454
319.746
322.021
324.328
326.705
329.188
331.801
334.566
337.499
340.61
343.903
347.377
351.026
354.838
358.794
362.872
367.042
371.27
375.514
379.73
383.866
387.868
391.676
395.226
398.45
401.279
403.641
405.463
406.673
407.198
406.973
405.932
404.019
401.187
397.398
392.627
386.863
380.108
372.381
363.71
354.136
343.7
332.432
320.32
307.241
302.689
306.749
310.1
313.028
315.7
318.223
320.679
323.128
325.623
328.204
330.907
333.758
336.782
339.992
343.401
347.013
350.826
354.834
359.022
363.371
367.855
372.442
377.093
381.765
386.407
390.964
395.374
399.573
403.489
407.048
410.175
412.789
414.81
416.159
416.756
416.527
415.403
413.321
410.228
406.085
400.863
394.553
387.158
378.7
369.216
358.752
347.362
335.087
321.929
307.78
302.751
306.937
310.416
313.477
316.288
318.959
321.573
324.193
326.871
329.653
332.572
335.659
338.938
342.424
346.129
350.057
354.207
358.571
363.134
367.874
372.762
377.765
382.84
387.939
393.007
397.983
402.802
407.391
411.674
415.57
418.995
421.862
424.085
425.574
426.246
426.017
424.812
422.563
419.213
414.718
409.05
402.197
394.167
384.983
374.69
363.343
351.003
337.727
323.529
308.316
302.81
307.115
310.715
313.903
316.847
319.66
322.426
325.211
328.068
331.044
334.175
337.493
341.021
344.777
348.772
353.012
357.493
362.208
367.139
372.264
377.551
382.964
388.456
393.976
399.464
404.855
410.077
415.053
419.699
423.928
427.649
430.768
433.191
434.821
435.568
435.341
434.058
431.647
428.046
423.208
417.101
409.716
401.06
391.164
380.075
367.858
354.585
340.324
325.103
308.843
302.865
307.282
310.997
314.305
317.375
320.323
323.234
326.177
329.206
332.369
335.705
339.244
343.014
347.031
351.308
355.849
360.652
365.707
370.996
376.495
382.17
387.98
393.878
399.808
405.705
411.5
417.116
422.468
427.469
432.023
436.033
439.399
442.017
443.787
444.608
444.385
443.03
440.463
436.619
431.448
424.918
417.016
407.754
397.165
385.304
372.243
358.064
342.846
326.631
309.355
302.917
307.438
311.26
314.68
317.869
320.944
323.992
327.084
330.276
333.616
337.146
340.897
344.897
349.163
353.709
358.538
363.648
369.028
374.659
380.515
386.561
392.753
399.04
405.361
411.651
417.833
423.826
429.54
434.88
439.747
444.036
447.639
450.447
452.351
453.246
453.028
451.604
448.89
444.815
439.327
432.392
423.997
414.156
402.906
390.306
376.438
361.392
345.259
328.093
309.845
302.965
307.582
311.503
315.026
318.324
321.517
324.693
327.923
331.266
334.773
338.483
342.433
346.647
351.147
355.944
361.044
366.441
372.127
378.079
384.271
390.665
397.216
403.868
410.559
417.217
423.764
430.111
436.166
441.827
446.988
451.54
455.367
458.354
460.387
461.351
461.14
459.653
456.801
452.511
446.726
439.411
430.554
420.17
408.299
395.006
380.379
364.519
347.526
329.467
310.305
303.008
307.712
311.723
315.339
318.737
322.037
325.328
328.685
332.167
335.824
339.701
343.832
348.243
352.957
357.985
363.332
368.995
374.96
381.208
387.709
394.423
401.302
408.291
415.321
422.319
429.201
435.875
442.244
448.2
453.633
458.427
462.461
465.614
467.765
468.796
468.591
467.047
464.071
459.583
453.526
445.863
436.581
425.698
413.256
399.326
384.002
367.393
349.61
330.73
310.729
303.046
307.827
311.917
315.616
319.102
322.496
325.891
329.36
332.965
336.758
340.782
345.074
349.662
354.567
359.801
365.37
371.268
377.484
383.996
390.773
397.774
404.948
412.237
419.572
426.873
434.056
441.023
447.673
453.894
459.571
464.582
468.803
472.105
474.363
475.453
475.256
473.661
470.573
465.91
459.61
451.636
441.975
430.645
417.693
403.193
387.245
369.966
351.476
331.861
311.107
303.078
307.925
312.083
315.853
319.415
322.89
326.373
329.939
333.65
337.559
341.711
346.142
350.882
355.952
361.364
367.123
373.226
379.659
386.399
393.414
400.663
408.092
415.641
423.239
430.803
438.246
445.467
452.36
458.81
464.699
469.898
474.28
477.712
480.063
481.205
481.014
479.377
476.194
471.379
464.869
456.626
446.638
434.922
421.529
406.536
390.049
372.191
353.089
332.839
311.435
303.105
308.005
312.218
316.047
319.671
323.213
326.769
330.414
334.211
338.216
342.473
347.019
351.884
357.089
362.648
368.565
374.836
381.447
388.375
395.587
403.039
410.679
418.443
426.257
434.039
441.695
449.126
456.22
462.86
468.923
474.278
478.793
482.332
484.761
485.946
485.761
484.089
480.826
475.887
469.205
460.741
450.482
438.449
424.692
409.293
392.361
374.026
354.419
333.645
311.705
303.125
308.067
312.322
316.195
319.866
323.46
327.071
330.776
334.641
338.719
343.056
347.69
352.65
357.96
363.631
369.669
376.069
382.817
389.889
397.252
404.861
412.663
420.591
428.572
436.52
444.342
451.933
459.181
465.967
472.164
477.639
482.257
485.879
488.366
489.585
489.404
487.706
484.384
479.348
472.534
463.9
453.434
441.157
427.121
411.41
394.137
375.435
355.441
334.264
311.913
303.139
308.108
312.392
316.295
319.998
323.626
327.275
331.022
334.931
339.059
343.45
348.143
353.169
358.549
364.297
370.416
376.904
383.745
390.915
398.38
406.095
414.006
422.046
430.14
438.201
446.135
453.835
461.188
468.073
474.36
479.917
484.604
488.282
490.81
492.052
491.875
490.158
486.795
481.695
474.792
466.042
455.436
442.994
428.768
412.846
395.342
376.391
356.134
334.684
312.053
303.146
308.129
312.428
316.346
320.065
323.71
327.378
331.145
335.078
339.23
343.649
348.372
353.431
358.846
364.632
370.794
377.325
384.213
391.432
398.949
406.718
414.684
422.781
430.931
439.05
447.04
454.795
462.201
469.136
475.47
481.067
485.79
489.496
492.045
493.297
493.122
491.397
488.013
482.881
475.932
467.124
456.447
443.921
429.6
413.571
395.95
376.874
356.484
334.897
312.124
303.146
308.129
312.428
316.346
320.065
323.71
327.378
331.145
335.078
339.23
343.649
348.372
353.431
358.846
364.632
370.794
377.325
384.213
391.432
398.949
406.718
414.684
422.781
430.932
439.05
447.04
454.795
462.201
469.136
475.47
481.067
485.79
489.496
492.045
493.297
493.122
491.397
488.013
482.881
475.932
467.124
456.447
443.921
429.6
413.571
395.95
376.874
356.484
334.897
312.124
303.139
308.108
312.392
316.295
319.998
323.626
327.275
331.022
334.931
339.059
343.45
348.143
353.169
358.549
364.297
370.416
376.904
383.745
390.915
398.38
406.096
414.006
422.046
430.14
438.201
446.135
453.835
461.188
468.073
474.36
479.917
484.604
488.282
490.81
492.052
491.875
490.158
486.795
481.695
474.791
466.042
455.436
442.994
428.768
412.846
395.342
376.391
356.134
334.684
312.053
303.125
308.067
312.322
316.195
319.866
323.46
327.071
330.776
334.641
338.719
343.056
347.69
352.65
357.96
363.631
369.669
376.069
382.817
389.89
397.252
404.861
412.663
420.591
428.572
436.52
444.342
451.933
459.181
465.967
472.164
477.639
482.257
485.879
488.366
489.585
489.404
487.706
484.383
479.348
472.534
463.9
453.434
441.157
427.121
411.41
394.137
375.435
355.441
334.264
311.913
303.105
308.005
312.218
316.047
319.671
323.213
326.769
330.414
334.211
338.216
342.473
347.019
351.884
357.089
362.648
368.565
374.836
381.447
388.375
395.587
403.039
410.679
418.443
426.257
434.039
441.695
449.126
456.22
462.86
468.923
474.278
478.793
482.332
484.761
485.946
485.761
484.089
480.826
475.887
469.205
460.74
450.482
438.449
424.692
409.293
392.361
374.026
354.419
333.645
311.705
303.078
307.925
312.083
315.853
319.415
322.89
326.373
329.939
333.65
337.559
341.711
346.142
350.882
355.952
361.364
367.124
373.226
379.659
386.399
393.414
400.663
408.092
415.641
423.239
430.803
438.246
445.467
452.36
458.811
464.699
469.898
474.28
477.712
480.063
481.205
481.014
479.377
476.193
471.378
464.869
456.626
446.637
434.922
421.528
406.536
390.049
372.191
353.089
332.839
311.435
303.046
307.827
311.917
315.616
319.102
322.496
325.891
329.36
332.965
336.758
340.782
345.074
349.662
354.567
359.801
365.37
371.268
377.485
383.996
390.773
397.774
404.948
412.237
419.572
426.874
434.056
441.023
447.673
453.894
459.571
464.582
468.803
472.105
474.363
475.453
475.255
473.661
470.573
465.91
459.61
451.635
441.975
430.645
417.692
403.192
387.245
369.966
351.476
331.861
311.107
303.008
307.712
311.723
315.339
318.737
322.037
325.328
328.685
332.167
335.824
339.701
343.832
348.244
352.957
357.985
363.332
368.995
374.96
381.208
387.709
394.423
401.303
408.291
415.321
422.319
429.201
435.875
442.244
448.2
453.633
458.427
462.461
465.614
467.765
468.795
468.591
467.047
464.07
459.583
453.526
445.862
436.581
425.697
413.255
399.326
384.002
367.393
349.61
330.73
310.729
302.965
307.582
311.503
315.026
318.324
321.517
324.693
327.923
331.266
334.773
338.483
342.433
346.648
351.147
355.944
361.044
366.442
372.127
378.08
384.271
390.665
397.216
403.868
410.559
417.217
423.764
430.111
436.166
441.827
446.988
451.54
455.367
458.354
460.387
461.351
461.14
459.653
456.801
452.511
446.726
439.411
430.554
420.17
408.298
395.005
380.378
364.518
347.525
329.467
310.305
302.917
307.438
311.26
314.68
317.869
320.944
323.992
327.084
330.276
333.616
337.146
340.897
344.897
349.163
353.709
358.538
363.648
369.028
374.659
380.515
386.561
392.753
399.04
405.362
411.651
417.833
423.826
429.54
434.88
439.747
444.036
447.639
450.447
452.351
453.246
453.028
451.604
448.89
444.815
439.327
432.391
423.997
414.156
402.905
390.306
376.437
361.392
345.258
328.093
309.845
302.865
307.282
310.997
314.305
317.375
320.323
323.234
326.177
329.206
332.369
335.705
339.244
343.014
347.031
351.308
355.849
360.652
365.707
370.996
376.495
382.17
387.98
393.878
399.808
405.705
411.5
417.116
422.468
427.469
432.023
436.033
439.399
442.017
443.787
444.608
444.385
443.03
440.463
436.619
431.448
424.917
417.016
407.754
397.165
385.304
372.243
358.064
342.846
326.631
309.355
302.81
307.115
310.715
313.903
316.847
319.66
322.426
325.21
328.068
331.044
334.175
337.493
341.021
344.777
348.772
353.012
357.494
362.208
367.139
372.264
377.551
382.964
388.456
393.976
399.464
404.855
410.077
415.053
419.699
423.928
427.649
430.768
433.19
434.821
435.567
435.34
434.058
431.647
428.046
423.207
417.101
409.716
401.06
391.163
380.074
367.857
354.585
340.323
325.103
308.843
302.751
306.937
310.415
313.477
316.288
318.959
321.573
324.192
326.871
329.653
332.572
335.659
338.938
342.424
346.129
350.057
354.207
358.571
363.134
367.874
372.763
377.765
382.84
387.939
393.007
397.983
402.802
407.391
411.674
415.57
418.995
421.862
424.085
425.574
426.245
426.017
424.811
422.562
419.213
414.718
409.05
402.197
394.166
384.983
374.69
363.342
351.003
337.727
323.529
308.316
302.689
306.749
310.1
313.028
315.7
318.223
320.679
323.128
325.623
328.204
330.907
333.758
336.782
339.992
343.401
347.013
350.826
354.834
359.022
363.371
367.855
372.442
377.093
381.765
386.407
390.964
395.374
399.573
403.489
407.048
410.175
412.789
414.81
416.158
416.756
416.527
415.403
413.32
410.228
406.084
400.863
394.552
387.157
378.7
369.215
358.752
347.362
335.087
321.929
307.78
302.623
306.551
309.767
312.557
315.083
317.454
319.746
322.021
324.328
326.705
329.188
331.801
334.566
337.499
340.61
343.903
347.377
351.026
354.838
358.794
362.872
367.042
371.27
375.514
379.73
383.867
387.869
391.676
395.226
398.45
401.279
403.641
405.463
406.672
407.198
406.972
405.931
404.019
401.187
397.398
392.627
386.863
380.108
372.38
363.71
354.136
343.7
332.432
320.32
307.241
302.554
306.343
309.417
312.062
314.437
316.65
318.775
320.872
322.987
325.159
327.42
329.793
332.301
334.956
337.769
340.743
343.88
347.172
350.61
354.177
357.851
361.608
365.414
369.234
373.028
376.748
380.346
383.767
386.955
389.848
392.384
394.498
396.125
397.199
397.657
397.437
396.481
394.74
392.17
388.736
384.415
379.196
373.08
366.08
358.221
349.533
340.049
329.785
318.716
306.704
302.48
306.122
309.047
311.538
313.757
315.806
317.76
319.676
321.598
323.564
325.602
327.738
329.988
332.368
334.886
337.546
340.349
343.289
346.358
349.54
352.818
356.167
359.559
362.963
366.341
369.653
372.854
375.897
378.73
381.299
383.549
385.422
386.86
387.804
388.197
387.985
387.118
385.548
383.238
380.157
376.282
371.604
366.12
359.841
352.785
344.975
336.432
327.162
317.127
306.171
302.401
305.885
308.65
310.981
313.036
314.916
316.695
318.427
320.155
321.914
323.731
325.629
327.626
329.734
331.961
334.313
336.788
339.384
342.091
344.897
347.786
350.737
353.725
356.722
359.695
362.609
365.424
368.098
370.587
372.842
374.815
376.454
377.709
378.529
378.863
378.663
377.884
376.486
374.434
371.701
368.267
364.12
359.259
353.69
347.424
340.479
332.864
324.575
315.558
305.646
302.315
305.627
308.221
310.38
312.262
313.967
315.565
317.11
318.643
320.195
321.793
323.457
325.204
327.045
328.988
331.038
333.194
335.452
337.807
340.247
342.758
345.322
347.917
350.519
353.099
355.627
358.068
360.386
362.542
364.494
366.199
367.615
368.696
369.397
369.676
369.491
368.802
367.575
365.778
363.387
360.385
356.761
352.511
347.637
342.148
336.051
329.35
322.025
314.012
305.128
302.22
305.341
307.747
309.721
311.419
312.939
314.352
315.707
317.042
318.388
319.769
321.202
322.704
324.284
325.949
327.704
329.548
331.48
333.493
335.577
337.722
339.91
342.125
344.345
346.546
348.701
350.781
352.756
354.591
356.251
357.701
358.902
359.817
360.407
360.637
360.469
359.871
358.812
357.266
355.212
352.634
349.52
345.868
341.676
336.948
331.685
325.881
319.507
312.484
304.616
302.111
305.016
307.211
308.981
310.48
311.807
313.027
314.187
315.324
316.464
317.628
318.835
320.095
321.42
322.815
324.283
325.825
327.439
329.12
330.861
332.65
334.476
336.324
338.175
340.009
341.805
343.538
345.181
346.708
348.089
349.293
350.29
351.047
351.533
351.718
351.57
351.063
350.171
348.872
347.148
344.984
342.371
339.304
335.78
331.799
327.356
322.436
317.003
310.964
304.105
301.981
304.633
306.586
308.127
309.41
310.53
311.548
312.51
313.445
314.379
315.33
316.312
317.337
318.411
319.542
320.731
321.979
323.285
324.644
326.051
327.498
328.973
330.465
331.96
333.441
334.89
336.288
337.613
338.844
339.956
340.925
341.726
342.334
342.722
342.866
342.742
342.326
341.6
340.543
339.142
337.384
335.261
332.768
329.9
326.654
323.02
318.978
314.482
309.43
303.59
301.821
304.162
305.828
307.107
308.151
309.05
309.858
310.614
311.346
312.073
312.812
313.573
314.365
315.195
316.067
316.984
317.946
318.952
319.999
321.083
322.196
323.331
324.479
325.628
326.767
327.881
328.955
329.974
330.919
331.772
332.516
333.13
333.594
333.89
333.997
333.898
333.575
333.012
332.194
331.111
329.752
328.11
326.181
323.959
321.439
318.609
315.445
311.895
307.847
303.057
301.607
303.547
304.862
305.838
306.617
307.277
307.864
308.41
308.935
309.456
309.982
310.524
311.088
311.677
312.297
312.947
313.63
314.343
315.085
315.852
316.641
317.445
318.258
319.072
319.878
320.666
321.427
322.147
322.815
323.419
323.944
324.377
324.705
324.913
324.987
324.915
324.684
324.282
323.701
322.93
321.964
320.797
319.424
317.841
316.042
314.015
311.737
309.155
306.155
302.481
301.286
302.675
303.55
304.172
304.657
305.061
305.419
305.749
306.065
306.378
306.694
307.018
307.355
307.708
308.078
308.466
308.874
309.299
309.742
310.2
310.671
311.15
311.635
312.121
312.601
313.071
313.524
313.954
314.352
314.712
315.024
315.282
315.477
315.6
315.644
315.6
315.461
315.221
314.873
314.412
313.834
313.136
312.314
311.365
310.286
309.067
307.688
306.109
304.229
301.807
300.704
301.286
301.608
301.825
301.99
302.127
302.247
302.357
302.463
302.567
302.672
302.781
302.893
303.01
303.133
303.262
303.398
303.539
303.686
303.839
303.995
304.155
304.316
304.477
304.637
304.793
304.943
305.086
305.218
305.338
305.442
305.527
305.592
305.633
305.647
305.632
305.586
305.506
305.39
305.237
305.044
304.812
304.538
304.222
303.863
303.455
302.993
302.458
301.802
300.878
300.265
300.638
300.899
301.094
301.25
301.382
301.499
301.608
301.713
301.817
301.921
302.029
302.141
302.259
302.382
302.511
302.646
302.788
302.935
303.087
303.244
303.403
303.564
303.726
303.885
304.041
304.192
304.335
304.467
304.586
304.69
304.775
304.84
304.881
304.895
304.88
304.834
304.754
304.638
304.485
304.293
304.061
303.788
303.474
303.117
302.714
302.261
301.749
301.154
300.438
300.638
301.626
302.36
302.925
303.384
303.775
304.125
304.45
304.764
305.075
305.39
305.714
306.051
306.403
306.773
307.162
307.569
307.995
308.438
308.896
309.366
309.846
310.331
310.816
311.297
311.767
312.22
312.649
313.047
313.406
313.719
313.977
314.171
314.294
314.337
314.293
314.154
313.914
313.566
313.106
312.529
311.832
311.013
310.069
308.997
307.792
306.44
304.917
303.18
301.159
300.898
302.357
303.488
304.384
305.124
305.763
306.339
306.878
307.399
307.917
308.442
308.983
309.546
310.136
310.755
311.405
312.088
312.801
313.543
314.311
315.099
315.904
316.717
317.53
318.336
319.125
319.885
320.605
321.273
321.876
322.4
322.833
323.16
323.367
323.441
323.369
323.138
322.736
322.155
321.385
320.421
319.256
317.887
316.311
314.524
312.519
310.28
307.778
304.963
301.772
301.09
302.915
304.373
305.558
306.555
307.427
308.221
308.968
309.695
310.419
311.155
311.915
312.706
313.536
314.409
315.326
316.288
317.294
318.341
319.424
320.538
321.673
322.821
323.97
325.109
326.222
327.296
328.314
329.259
330.112
330.855
331.468
331.932
332.227
332.334
332.234
331.91
331.347
330.53
329.448
328.091
326.453
324.529
322.316
319.811
317.008
313.892
310.438
306.599
302.325
301.241
303.36
305.093
306.53
307.76
308.851
309.852
310.803
311.732
312.662
313.61
314.591
315.614
316.689
317.819
319.008
320.257
321.563
322.922
324.33
325.776
327.251
328.744
330.238
331.719
333.167
334.565
335.89
337.12
338.231
339.2
340
340.606
340.993
341.137
341.012
340.596
339.869
338.813
337.413
335.658
333.54
331.053
328.196
324.968
321.364
317.377
312.985
308.154
302.849
301.365
303.729
305.697
307.359
308.801
310.096
311.296
312.445
313.574
314.71
315.872
317.076
318.336
319.66
321.055
322.523
324.065
325.68
327.361
329.101
330.891
332.717
334.565
336.415
338.25
340.045
341.777
343.42
344.946
346.326
347.529
348.525
349.281
349.766
349.949
349.801
349.293
348.401
347.103
345.38
343.219
340.611
337.551
334.04
330.079
325.669
320.808
315.484
309.674
303.359
301.472
304.047
306.222
308.084
309.722
311.209
312.601
313.943
315.271
316.612
317.989
319.421
320.921
322.501
324.166
325.921
327.766
329.698
331.711
333.796
335.94
338.129
340.344
342.563
344.764
346.918
348.998
350.971
352.805
354.465
355.913
357.113
358.026
358.615
358.843
358.674
358.076
357.016
355.471
353.419
350.843
347.735
344.092
339.913
335.207
329.979
324.236
317.976
311.187
303.867
301.566
304.329
306.689
308.735
310.555
312.225
313.802
315.334
316.858
318.404
319.999
321.662
323.407
325.248
327.191
329.241
331.397
333.656
336.011
338.451
340.962
343.526
346.121
348.722
351.302
353.83
356.27
358.587
360.741
362.692
364.396
365.81
366.889
367.589
367.866
367.68
366.99
365.762
363.966
361.577
358.578
354.959
350.718
345.859
340.393
334.333
327.695
320.486
312.71
304.377
301.651
304.584
307.114
309.33
311.322
313.167
314.923
316.641
318.361
320.114
321.928
323.824
325.82
327.928
330.155
332.507
334.983
337.578
340.286
343.092
345.981
348.932
351.92
354.916
357.889
360.802
363.616
366.289
368.777
371.03
373.001
374.639
375.892
376.709
377.041
376.84
376.06
374.661
372.61
369.879
366.448
362.307
357.455
351.901
345.659
338.752
331.202
323.031
314.253
304.894
301.729
304.819
307.508
309.884
312.04
314.052
315.984
317.885
319.799
321.759
323.794
325.927
328.176
330.556
333.073
335.734
338.537
341.478
344.547
347.73
351.008
354.356
357.749
361.152
364.529
367.841
371.041
374.082
376.913
379.481
381.729
383.599
385.034
385.976
386.367
386.154
385.285
383.715
381.405
378.325
374.454
369.782
364.308
358.044
351.013
343.242
334.765
325.614
315.819
305.419
301.803
305.039
307.877
310.405
312.717
314.892
316.995
319.078
321.184
323.35
325.607
327.979
330.485
333.14
335.953
338.928
342.065
345.358
348.796
352.363
356.038
359.794
363.6
367.42
371.213
374.932
378.529
381.948
385.134
388.025
390.558
392.67
394.294
395.366
395.821
395.599
394.642
392.9
390.329
386.897
382.58
377.367
371.261
364.277
356.443
347.796
338.378
328.234
317.406
305.951
301.872
305.247
308.226
310.899
313.362
315.695
317.965
320.225
322.522
324.895
327.373
329.984
332.749
335.681
338.792
342.085
345.56
349.21
353.022
356.979
361.057
365.227
369.454
373.698
377.913
382.048
386.049
389.854
393.402
396.623
399.45
401.809
403.628
404.834
405.357
405.129
404.086
402.173
399.341
395.553
390.786
385.028
378.284
370.572
361.928
352.394
342.026
330.879
319.009
306.487
301.937
305.445
308.558
311.369
313.977
316.463
318.896
321.331
323.816
326.392
329.091
331.941
334.963
338.174
341.583
345.195
349.009
353.017
357.205
361.554
366.039
370.625
375.277
379.948
384.589
389.144
393.553
397.749
401.662
405.219
408.343
410.953
412.971
414.317
414.911
414.679
413.553
411.469
408.376
404.234
399.016
392.712
385.328
376.887
367.429
357.007
345.685
333.531
320.616
307.026
301.999
305.632
308.873
311.818
314.565
317.199
319.789
322.395
325.064
327.84
330.756
333.841
337.119
340.605
344.31
348.239
352.39
356.754
361.317
366.057
370.946
375.949
381.023
386.121
391.188
396.163
400.98
405.566
409.847
413.739
417.161
420.025
422.243
423.729
424.397
424.165
422.957
420.707
417.357
412.863
407.199
400.353
392.333
383.166
372.9
361.594
349.323
336.169
322.215
307.561
302.058
305.81
309.172
312.243
315.124
317.899
320.642
323.412
326.261
329.231
332.359
335.675
339.202
342.958
346.954
351.194
355.676
360.391
365.323
370.448
375.735
381.148
386.639
392.158
397.645
403.035
408.255
413.227
417.87
422.096
425.813
428.928
431.347
432.973
433.716
433.486
432.2
429.788
426.186
421.348
415.246
407.867
399.222
389.343
378.281
366.106
352.903
338.764
323.788
308.088
302.114
305.977
309.455
312.645
315.652
318.562
321.451
324.379
327.399
330.556
333.888
337.427
341.195
345.213
349.49
354.032
358.835
363.891
369.18
374.679
380.354
386.165
392.062
397.991
403.887
409.68
415.293
420.642
425.639
430.19
434.196
437.557
440.172
441.937
442.754
442.527
441.169
438.6
434.755
429.585
423.058
415.163
405.913
395.341
383.507
370.489
356.38
341.285
325.315
308.6
302.165
306.133
309.718
313.021
316.146
319.183
322.209
325.286
328.469
331.804
335.33
339.08
343.079
347.345
351.891
356.721
361.831
367.212
372.844
378.701
384.746
390.938
397.224
403.545
409.833
416.013
422.003
427.714
433.05
437.913
442.197
445.796
448.599
450.499
451.389
451.167
449.74
447.023
442.948
437.46
430.528
422.141
412.311
401.079
388.506
374.681
359.705
343.696
326.776
309.09
302.213
306.277
309.961
313.367
316.601
319.756
322.909
326.125
329.46
332.961
336.668
340.616
344.83
349.33
354.127
359.227
364.626
370.312
376.265
382.458
388.852
395.402
402.053
408.743
415.399
421.943
428.288
434.339
439.996
445.154
449.7
453.522
456.505
458.532
459.492
459.276
457.786
454.932
450.64
444.856
437.544
428.694
418.321
406.468
393.203
378.619
362.83
345.962
328.149
309.549
302.256
306.407
310.18
313.68
317.014
320.276
323.545
326.887
330.36
334.013
337.886
342.015
346.427
351.14
356.169
361.517
367.18
373.146
379.395
385.896
392.61
399.489
406.476
413.505
420.501
427.381
434.052
440.417
446.369
451.798
456.586
460.615
463.763
465.909
466.934
466.725
465.177
462.198
457.709
451.653
443.993
434.718
423.846
411.423
397.521
382.24
365.703
348.045
329.412
309.972
302.294
306.522
310.374
313.957
317.379
320.736
324.108
327.563
331.159
334.946
338.968
343.258
347.846
352.751
357.986
363.555
369.454
375.671
382.184
388.961
395.961
403.136
410.424
417.757
425.056
432.236
439.2
445.846
452.063
457.735
462.741
466.956
470.253
472.505
473.589
473.387
471.789
468.698
464.033
457.734
449.763
440.109
428.791
415.857
401.385
385.482
368.275
349.909
330.542
310.351
302.327
306.62
310.54
314.194
317.692
321.13
324.591
328.142
331.844
335.748
339.897
344.327
349.066
354.136
359.549
365.309
371.413
377.846
384.587
391.603
398.851
406.28
413.828
421.424
428.987
436.426
443.644
450.533
456.979
462.862
468.056
472.432
475.859
478.204
479.34
479.144
477.503
474.316
469.499
462.991
454.751
444.769
433.066
419.691
404.726
388.284
370.498
351.522
331.519
310.678
302.353
306.701
310.676
314.388
317.948
321.453
324.986
328.617
332.406
336.405
340.659
345.204
350.068
355.274
360.833
366.751
373.023
379.635
386.564
393.776
401.228
408.867
416.63
424.443
432.222
439.876
447.303
454.393
461.028
467.086
472.436
476.945
480.478
482.9
484.079
483.889
482.213
478.947
474.006
467.324
458.863
448.612
436.59
422.852
407.482
390.595
372.332
352.851
332.325
310.948
302.374
306.762
310.78
314.536
318.144
321.7
325.288
328.98
332.836
336.908
341.242
345.875
350.835
356.145
361.817
367.856
374.257
381.006
388.079
395.442
403.051
410.851
418.779
426.758
434.704
442.522
450.11
457.354
464.135
470.327
475.796
480.408
484.023
486.505
487.717
487.531
485.829
482.503
477.466
470.652
462.021
451.563
439.297
425.28
409.598
392.37
373.74
353.872
332.944
311.156
302.387
306.804
310.85
314.636
318.276
321.867
325.493
329.225
333.126
337.248
341.637
346.329
351.354
356.734
362.483
368.603
375.092
381.933
389.104
396.57
404.285
412.195
420.234
428.326
436.385
444.315
452.012
459.361
466.241
472.523
478.074
482.755
486.426
488.948
490.183
490.001
488.28
484.913
479.812
472.908
464.163
453.563
441.133
426.926