/*--------------------------------*- C++ -*----------------------------------*\
| =========                 |                                                 |
| \\      /  F ield         | OpenFOAM: The Open Source CFD Toolbox           |
|  \\    /   O peration     | Version:  5.x                                   |
|   \\  /    A nd           | Web:      www.OpenFOAM.org                      |
|    \\/     M anipulation  |                                                 |
\*---------------------------------------------------------------------------*/
FoamFile
{
    version     2.0;
    format      ascii;
    class       volScalarField;
    location    "1.2";
    object      gradTy;
}
// * * * * * * * * * * * * * * * * * * * * * * * * * * * * * * * * * * * * * //

dimensions      [0 -1 0 1 0 0 0];

internalField   nonuniform List<scalar> 
25000
(
5312.01
10907.7
14551.4
17274
19486.3
21380.1
23056.8
24575.7
25973.7
27275.1
28496.4
29648.8
30740.2
31775.7
32758.6
33690.4
34571.5
35401.3
36178.2
36899.9
37563.4
38165.3
38701.6
39167.8
39559.6
39872
40100.1
40239
40283.8
40229.5
40071.6
39805.6
39427.3
38932.6
38317.9
37579.6
36714.2
35718.3
34588
33318.8
31904.6
30337.3
28604.5
26687.2
24554.7
22155.1
19394.7
16090.7
11841
5624.78
2587.8
6645.58
9772.09
12286.2
14399.4
16238.9
17882.5
19379.2
20761.2
22050.5
23262.1
24406.7
25491.4
26521.1
27498.8
28426
29303.1
30129.2
30902.7
31621.4
32282.3
32881.8
33415.9
33880.5
34270.8
34582.1
34809.5
34948
34992.8
34939.1
34782.1
34517.5
34141.1
33649
33037.4
32303
31442.4
30452.1
29328.7
28067.8
26663.9
25109.6
23393.9
21500.2
19402.5
17058.9
14399.6
11306
7575.71
2899.49
1662.51
4685.73
7291.11
9534.62
11497.2
13246
14830.7
16286.5
17638.5
18904.6
20097.6
21226.7
22298.3
23316.5
24284.1
25202.3
26071.2
26890
27656.9
28369.6
29025.1
29619.8
30149.8
30610.9
30998.3
31307.5
31533.4
31671.2
31716.1
31663.3
31508.2
31246.4
30873.9
30386.8
29781.5
29054.8
28203.4
27224.4
26114.4
24869.7
23485.8
21956.5
20273.2
18423.2
16387.5
14138.1
11633.2
8814.26
5609.35
1972.02
1250.5
3648.46
5847.95
7836.72
9636.74
11277.9
12787.9
14189.4
15500.2
16733.8
17900.2
19007
20059.4
21060.9
22013.6
22918.4
23775.3
24583.1
25340.1
26043.9
26691.4
27279
27802.9
28258.6
28641.8
28947.7
29171.4
29308.2
29353.2
29301.7
29149.4
28891.8
28525
28045.3
27449.3
26733.9
25896.2
24933.5
23843
22621.9
21266.6
19772.6
18134
16342.4
14386.2
12249.8
9913.17
7355.02
4562.33
1556.73
1022.78
3024.16
4922.39
6694.45
8340.26
9870.25
11298.1
12636.9
13898.5
15092.1
16225.4
17303.9
18331.6
19311.4
20244.8
21132.2
21973.2
22766.7
23510.6
24202.6
24839.5
25417.7
25933.4
26382.2
26759.7
27061.2
27282
27417.3
27462.4
27412.7
27263.9
27011.7
26652.4
26182.4
25598.5
24897.9
24077.9
23136.3
22071
20879.8
19560.4
18110.1
16525.4
14802
12934.3
10916.1
8741.33
6407.99
3925.02
1324.65
876.416
2606.57
4278
5870.57
7377.4
8799.9
10143.6
11415.5
12622.4
13770.7
14865.4
15910.5
16908.9
17862.5
18772.4
19638.5
20460.1
21235.9
21963.8
22641.2
23264.9
23831.5
24336.9
24777.1
25147.5
25443.5
25660.6
25794
25839.2
25791.6
25647.1
25401.6
25051.4
24593.3
24024.1
23341.4
22542.9
21626.8
20591.5
19435.7
18158.2
16757.9
15233.7
13584.2
11808.6
9906.66
7880.45
5736.75
3491.14
1172.83
772.057
2302.94
3797.68
5240.79
6624.29
7945.85
9206.68
10409.8
11559
12657.9
13709.8
14717.3
15682.3
16605.8
17488.3
18329.5
19128.4
19883.4
20592.3
21252.4
21860.5
22413.2
22906.5
23336.3
23698.3
23987.8
24200.4
24331.5
24376.6
24331.4
24191.9
23954.1
23614.6
23170.3
22618.3
21956.4
21182.7
20295.9
19294.9
18179.2
16948.5
15603.1
14143.6
12571.2
10888.1
9097.66
7206.26
5224.19
3167.96
1061.92
691.863
2067.16
3418.75
4735.09
6008.88
7236.54
8417.14
9551.44
10641.1
11687.9
12693.8
13660.2
14588.1
15478
16329.9
17142.9
17915.9
18647.1
19334.1
19974.4
20564.6
21101.2
21580.5
21998.3
22350.3
22632.2
22839.5
22967.8
23012.8
22970.3
22836.4
22607.4
22279.9
21851.1
21318.5
20680.1
19934.3
19080.1
18117.1
17045.3
15865.4
14578.5
13186.8
11693
10101.1
8417.02
6648.72
4807.64
2909.37
974.086
626.636
1874.2
3105.41
4311.64
5486.74
6626.93
7730.36
8796.52
9825.7
10818.6
11776
12698.4
13586.3
14439.5
15257.5
16039.3
16783.5
17488.1
18150.7
18768.6
19338.6
19857.1
20320.5
20724.6
21065.4
21338.6
21539.8
21664.9
21709.5
21669.9
21542
21322.6
21008.5
20597
20085.7
19473.1
18757.8
17939.3
17017.4
15992.8
14866.7
13641.3
12319.4
10904.8
9402.88
7820.34
6166.04
4451.31
2690.34
900.124
571.161
1709.43
2835.99
3944.28
5029.26
6087.44
7116.61
8115.63
9084
10021.6
10928.5
11804.7
12649.9
13463.6
14245
14992.9
15705.5
16380.9
17016.5
17609.7
18157.2
18655.6
19101.3
19490.2
19818.4
20081.8
20276.2
20397.4
20441.6
20404.8
20283.6
20074.6
19774.9
19382.1
18894
18309.3
17626.9
16846.6
15968.6
14994
13924.4
12762.6
11512
10177.1
8763.72
7279.09
5732.1
4133.57
2496.27
834.83
522.271
1563.84
2596.75
3615.96
4617.39
5597.93
6555.37
7488.28
8395.72
9277.1
10132
10959.8
11760.1
12531.9
13274.2
13985.5
14664.1
15307.8
15914.1
16480.3
17003.3
17479.7
17905.8
18278
18592.3
18844.8
19031.5
19148.4
19191.8
19158.1
19043.8
18845.9
18561.6
18188.8
17725.5
17170.6
16523.2
15783.4
14951.7
14029.5
13018.7
11922.4
10744.4
9489.44
8163.66
6774.28
5329.94
3840.73
2318.18
775.048
477.936
1431.57
2378.65
3315.25
4238.05
5144.37
6032.14
6899.84
7746.32
8570.7
9372.2
10150
10903.4
11631.1
12332
13004.4
13646.6
14256.3
14831.1
15368.2
15864.6
16317
16722
17076
17375.1
17615.7
17793.8
17905.9
17948.3
17917.5
17810.5
17624.3
17356.4
17004.7
16567.7
16044.2
15433.8
14736.6
13953.3
13085.5
12135.5
11106.3
10002
8827.54
7588.84
6293
4948.21
3563.83
2150.25
718.766
436.804
1308.69
2175.53
3034.22
3882.05
4716.75
5536.45
6339.65
7125.12
7891.83
8638.83
9365.16
10069.8
10751.5
11408.8
12040.3
12643.8
13217.4
13758.5
14264.5
14732.5
15159.2
15541.4
15875.7
16158.4
16385.9
16554.8
16661.5
16702.5
16674.7
16575.2
16401.2
16150.4
15821
15411.5
14921
14349.2
13696.4
12963.4
12152
11264.5
10304
9274.63
8181.18
7029.48
5826.24
4579.17
3296.83
1988.64
664.653
397.944
1192.49
1983.09
2767.28
3542.84
4307.85
5060.65
5799.84
6524.2
7232.63
7924.1
8597.55
9251.84
9885.69
10497.6
11086.1
11649
12184.5
12690
13162.9
13600.6
14000
14357.9
14671
14936.1
15149.7
15308.5
15409.2
15448.6
15423.7
15331.8
15170.4
14937.4
14631.2
14250.4
13794.3
13262.6
12655.9
11975
11221.7
10398.3
9508.01
8554.7
7543.08
6478.64
5367.71
4217.41
3035.58
1830.71
611.81
360.7
1081.05
1798.27
2510.41
3215.64
3912.35
4599.08
5274.55
5937.61
6587.16
7222.15
7841.48
8443.99
9028.37
9593.16
10136.7
10657.3
11152.7
11620.7
12058.9
12464.6
12835
13167.1
13457.8
13704.1
13902.8
14050.8
14144.9
14182.3
14160.2
14076.1
13927.8
13713.2
13431
13079.9
12659.4
12169.3
11610.1
10982.8
10289.2
9531.56
8712.86
7836.86
6907.99
5931.4
4912.96
3859.18
2777.2
1674.66
559.617
324.603
972.975
1618.86
2260.69
2896.96
3526.32
4147.52
4759.41
5360.9
5950.97
6528.59
7092.67
7642.05
8175.46
8691.49
9188.55
9664.89
10118.6
10547.4
10949.2
11321.3
11661.2
11966.2
12233.3
12459.7
12642.6
12778.9
12866
12901.1
12881.7
12805.5
12670.5
12474.9
12217.3
11896.9
11513.1
11065.8
10555.6
9983.43
9350.99
8660.48
7914.76
7117.3
6272.24
5384.31
4458.88
3501.86
2519.69
1519.23
507.652
289.312
867.27
1443.25
2015.97
2584.23
3146.88
3702.85
4251.12
4790.74
5320.73
5840.13
6347.9
6842.93
7324.02
7789.82
8238.83
8669.42
9079.76
9467.88
9831.64
10168.8
10476.8
10753.3
10995.7
11201.2
11367.4
11491.4
11570.9
11603.4
11586.5
11518.3
11396.8
11220.7
10988.5
10699.6
10353.5
9950.13
9490.11
8974.39
8404.51
7782.54
7111.12
6393.46
5633.32
4835
4003.35
3143.68
2261.72
1363.58
455.625
254.577
763.202
1270.25
1774.69
2275.54
2771.86
3262.73
3747.29
4224.66
4693.98
5154.37
5604.86
6044.43
6471.95
6886.19
7285.77
7669.18
8034.76
8380.72
8705.1
9005.86
9280.82
9527.7
9744.2
9927.93
10076.5
10187.7
10259.1
10288.6
10274.1
10213.9
10106.3
9949.9
9743.74
9487.06
9179.51
8821.15
8412.47
7954.39
7448.34
6896.2
6300.36
5663.72
4989.64
4281.98
3545.02
2783.48
2002.41
1207.18
403.353
220.219
660.237
1099
1535.7
1969.53
2399.71
2825.49
3246.13
3660.87
4068.96
4469.6
4861.93
5245.03
5617.88
5979.37
6328.28
6663.23
6982.76
7285.27
7569.03
7832.22
8072.92
8289.13
8478.8
8639.86
8770.22
8867.82
8930.69
8956.91
8944.73
8892.53
8798.92
8662.73
8483.04
8259.25
7991.08
7678.6
7322.27
6922.94
6481.87
6000.74
5481.68
4927.22
4340.33
3724.38
3083.11
2420.61
1741.26
1049.69
350.724
186.106
557.99
928.893
1298.17
1665.18
2029.3
2389.92
2746.41
3098.14
3444.46
3784.68
4118.06
4443.79
4761
5068.7
5365.83
5651.21
5923.55
6181.48
6423.51
6648.07
6853.51
7038.1
7200.1
7337.72
7449.17
7532.71
7586.63
7609.32
7599.27
7555.12
7475.67
7359.93
7207.15
7016.82
6788.72
6522.93
6219.85
5880.24
5505.18
5096.14
4654.93
4183.75
3685.11
3161.9
2617.29
2054.76
1478.02
890.972
297.688
152.148
456.192
759.483
1061.52
1361.82
1659.87
1955.19
2247.29
2535.64
2819.71
3098.92
3372.67
3640.27
3900.98
4153.99
4398.41
4633.24
4857.43
5069.81
5269.16
5454.17
5623.47
5775.64
5909.22
6022.74
6114.73
6183.74
6228.37
6247.28
6239.24
6203.12
6137.95
6042.93
5917.42
5761.03
5573.59
5355.17
5106.11
4827.06
4518.91
4182.9
3820.51
3433.57
3024.16
2594.63
2147.62
1685.96
1212.69
731.011
244.239
118.281
354.657
590.476
825.37
1058.97
1290.9
1520.79
1748.26
1972.9
2194.3
2412.02
2625.55
2834.37
3037.89
3235.46
3426.38
3609.87
3785.09
3951.13
4107.01
4251.71
4384.15
4503.22
4607.77
4696.64
4768.69
4822.78
4857.81
4872.74
4866.6
4838.52
4787.73
4713.61
4615.68
4493.63
4347.33
4176.85
3982.46
3764.66
3524.19
3261.99
2979.25
2677.38
2358.02
2023.02
1674.43
1314.44
945.437
569.899
190.408
84.4642
253.265
421.684
589.465
756.353
922.09
1086.41
1249.05
1409.72
1568.11
1723.92
1876.78
2026.31
2172.08
2313.63
2450.45
2581.97
2707.59
2826.64
2938.43
3042.23
3137.24
3222.67
3297.7
3361.5
3413.23
3452.09
3477.28
3488.07
3483.74
3463.69
3427.36
3374.3
3304.19
3216.78
3112
2989.9
2850.68
2694.71
2522.5
2334.75
2132.3
1916.19
1687.57
1447.77
1198.27
940.628
676.552
407.813
136.253
50.6727
151.944
252.991
353.666
453.817
553.292
651.936
749.586
846.074
941.217
1034.82
1126.68
1216.55
1304.17
1389.28
1471.55
1550.65
1626.2
1697.82
1765.08
1827.53
1884.7
1936.12
1981.28
2019.68
2050.83
2074.23
2089.42
2095.94
2093.36
2081.33
2059.51
2027.63
1985.49
1932.95
1869.97
1796.57
1712.89
1619.14
1515.63
1402.79
1281.12
1151.25
1013.87
869.784
719.871
565.083
406.433
244.988
81.8515
16.892
50.6517
84.3379
117.901
151.292
184.461
217.355
249.92
282.102
313.838
345.065
375.71
405.696
434.938
463.339
490.797
517.197
542.417
566.324
588.777
609.625
628.713
645.878
660.955
673.778
684.178
691.992
697.063
699.239
698.382
694.366
687.082
676.441
662.375
644.84
623.819
599.324
571.396
540.11
505.57
467.917
427.323
383.992
338.161
290.096
240.089
188.46
135.546
81.7028
27.2971
-16.8857
-50.6325
-84.3057
-117.856
-151.234
-184.389
-217.27
-249.822
-281.99
-313.712
-344.924
-375.555
-405.527
-434.753
-463.141
-490.585
-516.972
-542.181
-566.077
-588.52
-609.361
-628.443
-645.605
-660.681
-673.504
-683.908
-691.728
-696.807
-698.995
-698.152
-694.152
-686.887
-676.267
-662.223
-644.711
-623.715
-599.245
-571.343
-540.082
-505.567
-467.936
-427.361
-384.047
-338.227
-290.169
-240.163
-188.527
-135.6
-81.7381
-27.3093
-50.6664
-151.925
-252.959
-353.621
-453.759
-553.222
-651.853
-749.49
-845.963
-941.093
-1034.68
-1126.52
-1216.38
-1303.99
-1389.08
-1471.34
-1550.42
-1625.97
-1697.58
-1764.82
-1827.27
-1884.44
-1935.85
-1981.01
-2019.41
-2050.56
-2073.97
-2089.17
-2095.69
-2093.14
-2081.12
-2059.32
-2027.46
-1985.33
-1932.82
-1869.86
-1796.49
-1712.84
-1619.11
-1515.63
-1402.81
-1281.16
-1151.3
-1013.93
-869.857
-719.944
-565.149
-406.486
-245.023
-81.8636
-84.4581
-253.247
-421.653
-589.422
-756.297
-922.022
-1086.33
-1248.95
-1409.61
-1567.99
-1723.78
-1876.63
-2026.14
-2171.9
-2313.44
-2450.24
-2581.75
-2707.36
-2826.4
-2938.19
-3041.97
-3136.98
-3222.41
-3297.43
-3361.23
-3412.97
-3451.83
-3477.04
-3487.83
-3483.52
-3463.48
-3427.17
-3374.13
-3304.04
-3216.65
-3111.9
-2989.82
-2850.63
-2694.68
-2522.5
-2334.77
-2132.34
-1916.24
-1687.63
-1447.85
-1198.34
-940.693
-676.604
-407.847
-136.265
-118.275
-354.639
-590.447
-825.329
-1058.91
-1290.83
-1520.71
-1748.17
-1972.8
-2194.19
-2411.89
-2625.4
-2834.21
-3037.72
-3235.28
-3426.18
-3609.66
-3784.87
-3950.9
-4106.77
-4251.46
-4383.9
-4502.96
-4607.51
-4696.38
-4768.44
-4822.53
-4857.57
-4872.51
-4866.38
-4838.31
-4787.54
-4713.45
-4615.54
-4493.51
-4347.23
-4176.77
-3982.41
-3764.64
-3524.18
-3262
-2979.28
-2677.43
-2358.08
-2023.09
-1674.49
-1314.5
-945.487
-569.933
-190.42
-152.142
-456.175
-759.455
-1061.48
-1361.77
-1659.81
-1955.12
-2247.2
-2535.54
-2819.6
-3098.8
-3372.53
-3640.12
-3900.82
-4153.82
-4398.22
-4633.04
-4857.21
-5069.59
-5268.93
-5453.93
-5623.23
-5775.39
-5908.97
-6022.49
-6114.48
-6183.5
-6228.13
-6247.05
-6239.02
-6202.92
-6137.77
-6042.76
-5917.28
-5760.91
-5573.49
-5355.09
-5106.06
-4827.03
-4518.91
-4182.91
-3820.55
-3433.62
-3024.21
-2594.7
-2147.69
-1686.02
-1212.74
-731.043
-244.25
-186.101
-557.975
-928.868
-1298.13
-1665.14
-2029.25
-2389.85
-2746.33
-3098.05
-3444.36
-3784.56
-4117.93
-4443.65
-4760.85
-5068.54
-5365.65
-5651.02
-5923.35
-6181.27
-6423.29
-6647.84
-6853.27
-7037.87
-7199.86
-7337.48
-7448.94
-7532.48
-7586.41
-7609.11
-7599.07
-7554.93
-7475.49
-7359.78
-7207.01
-7016.7
-6788.62
-6522.86
-6219.8
-5880.21
-5505.17
-5096.15
-4654.96
-4183.79
-3685.17
-3161.96
-2617.36
-2054.82
-1478.06
-891.003
-297.698
-220.214
-660.223
-1098.98
-1535.67
-1969.49
-2399.66
-2825.43
-3246.06
-3660.79
-4068.87
-4469.49
-4861.81
-5244.9
-5617.74
-5979.22
-6328.11
-6663.05
-6982.57
-7285.07
-7568.82
-7832.01
-8072.7
-8288.91
-8478.58
-8639.64
-8770
-8867.61
-8930.48
-8956.71
-8944.54
-8892.35
-8798.76
-8662.58
-8482.91
-8259.13
-7990.99
-7678.53
-7322.22
-6922.91
-6481.86
-6000.75
-5481.71
-4927.26
-4340.38
-3724.44
-3083.17
-2420.66
-1741.3
-1049.72
-350.734
-254.573
-763.19
-1270.23
-1774.66
-2275.51
-2771.82
-3262.68
-3747.22
-4224.59
-4693.9
-5154.27
-5604.75
-6044.31
-6471.82
-6886.05
-7285.62
-7669.02
-8034.59
-8380.54
-8704.92
-9005.67
-9280.62
-9527.5
-9743.99
-9927.72
-10076.3
-10187.5
-10258.9
-10288.4
-10273.9
-10213.7
-10106.1
-9949.76
-9743.62
-9486.95
-9179.42
-8821.08
-8412.42
-7954.36
-7448.33
-6896.2
-6300.38
-5663.75
-4989.68
-4282.03
-3545.07
-2783.53
-2002.45
-1207.2
-403.362
-289.309
-867.26
-1443.23
-2015.95
-2584.2
-3146.84
-3702.8
-4251.07
-4790.68
-5320.66
-5840.05
-6347.8
-6842.83
-7323.9
-7789.69
-8238.7
-8669.28
-9079.61
-9467.72
-9831.47
-10168.6
-10476.6
-10753.1
-10995.5
-11201
-11367.2
-11491.2
-11570.7
-11603.2
-11586.3
-11518.1
-11396.7
-11220.5
-10988.4
-10699.5
-10353.4
-9950.07
-9490.06
-8974.36
-8404.49
-7782.54
-7111.14
-6393.49
-5633.36
-4835.05
-4003.4
-3143.72
-2261.76
-1363.61
-455.633
-324.601
-972.967
-1618.85
-2260.67
-2896.94
-3526.29
-4147.48
-4759.36
-5360.85
-5950.91
-6528.52
-7092.59
-7641.96
-8175.36
-8691.38
-9188.44
-9664.77
-10118.4
-10547.3
-10949
-11321.1
-11661
-11966
-12233.1
-12459.6
-12642.4
-12778.8
-12865.8
-12900.9
-12881.5
-12805.3
-12670.3
-12474.7
-12217.2
-11896.8
-11513
-11065.7
-10555.5
-9983.4
-9350.97
-8660.48
-7914.77
-7117.33
-6272.27
-5384.35
-4458.92
-3501.9
-2519.72
-1519.25
-507.659
-360.698
-1081.04
-1798.26
-2510.39
-3215.62
-3912.32
-4599.05
-5274.52
-5937.57
-6587.11
-7222.09
-7841.42
-8443.91
-9028.28
-9593.07
-10136.6
-10657.2
-11152.5
-11620.6
-12058.8
-12464.4
-12834.8
-13166.9
-13457.7
-13704
-13902.7
-14050.6
-14144.8
-14182.2
-14160.1
-14076
-13927.7
-13713.1
-13430.9
-13079.8
-12659.3
-12169.2
-11610
-10982.8
-10289.2
-9531.55
-8712.87
-7836.88
-6908.01
-5931.43
-4912.99
-3859.21
-2777.22
-1674.67
-559.624
-397.943
-1192.49
-1983.08
-2767.27
-3542.83
-4307.83
-5060.63
-5799.81
-6524.16
-7232.59
-7924.06
-8597.5
-9251.78
-9885.62
-10497.6
-11086
-11649
-12184.4
-12689.9
-13162.8
-13600.5
-13999.8
-14357.7
-14670.9
-14936
-15149.6
-15308.4
-15409.1
-15448.4
-15423.6
-15331.7
-15170.3
-14937.3
-14631.1
-14250.3
-13794.2
-13262.6
-12655.8
-11975
-11221.6
-10398.3
-9508.01
-8554.71
-7543.09
-6478.66
-5367.74
-4217.44
-3035.6
-1830.73
-611.815
-436.803
-1308.69
-2175.52
-3034.21
-3882.05
-4716.74
-5536.44
-6339.63
-7125.1
-7891.81
-8638.8
-9365.13
-10069.7
-10751.4
-11408.8
-12040.2
-12643.8
-13217.3
-13758.5
-14264.4
-14732.4
-15159.1
-15541.3
-15875.6
-16158.3
-16385.8
-16554.7
-16661.4
-16702.4
-16674.6
-16575.1
-16401.1
-16150.3
-15820.9
-15411.4
-14920.9
-14349.1
-13696.3
-12963.4
-12152
-11264.5
-10304
-9274.63
-8181.19
-7029.49
-5826.26
-4579.19
-3296.85
-1988.65
-664.657
-477.936
-1431.57
-2378.65
-3315.25
-4238.05
-5144.36
-6032.14
-6899.83
-7746.31
-8570.69
-9372.18
-10150
-10903.3
-11631.1
-12332
-13004.4
-13646.6
-14256.3
-14831
-15368.1
-15864.5
-16317
-16722
-17075.9
-17375
-17615.6
-17793.8
-17905.8
-17948.2
-17917.5
-17810.4
-17624.2
-17356.3
-17004.6
-16567.6
-16044.2
-15433.8
-14736.5
-13953.3
-13085.5
-12135.5
-11106.3
-10002
-8827.54
-7588.84
-6293.01
-4948.23
-3563.84
-2150.26
-718.768
-522.272
-1563.84
-2596.75
-3615.97
-4617.4
-5597.93
-6555.38
-7488.28
-8395.73
-9277.11
-10132
-10959.8
-11760.1
-12531.9
-13274.2
-13985.5
-14664.1
-15307.8
-15914.1
-16480.3
-17003.3
-17479.6
-17905.8
-18278
-18592.3
-18844.7
-19031.4
-19148.4
-19191.8
-19158
-19043.7
-18845.8
-18561.6
-18188.7
-17725.5
-17170.5
-16523.2
-15783.4
-14951.7
-14029.4
-13018.7
-11922.4
-10744.3
-9489.43
-8163.66
-6774.28
-5329.94
-3840.73
-2318.18
-775.049
-571.163
-1709.44
-2835.99
-3944.29
-5029.27
-6087.45
-7116.63
-8115.64
-9084.02
-10021.6
-10928.5
-11804.7
-12649.9
-13463.6
-14245
-14992.9
-15705.5
-16380.9
-17016.6
-17609.7
-18157.2
-18655.6
-19101.3
-19490.2
-19818.4
-20081.8
-20276.1
-20397.4
-20441.6
-20404.8
-20283.6
-20074.6
-19774.9
-19382
-18894
-18309.2
-17626.9
-16846.5
-15968.5
-14993.9
-13924.4
-12762.6
-11512
-10177.1
-8763.71
-7279.07
-5732.09
-4133.56
-2496.27
-834.829
-626.638
-1874.2
-3105.42
-4311.65
-5486.75
-6626.95
-7730.39
-8796.55
-9825.73
-10818.6
-11776
-12698.5
-13586.3
-14439.5
-15257.5
-16039.4
-16783.5
-17488.1
-18150.8
-18768.6
-19338.6
-19857.1
-20320.5
-20724.6
-21065.4
-21338.6
-21539.8
-21664.9
-21709.6
-21669.9
-21542.1
-21322.6
-21008.5
-20597
-20085.7
-19473.1
-18757.8
-17939.2
-17017.4
-15992.8
-14866.7
-13641.3
-12319.3
-10904.8
-9402.85
-7820.32
-6166.02
-4451.3
-2690.33
-900.121
-691.866
-2067.17
-3418.77
-4735.11
-6008.91
-7236.57
-8417.17
-9551.48
-10641.1
-11688
-12693.8
-13660.3
-14588.2
-15478.1
-16329.9
-17143
-17916
-18647.1
-19334.2
-19974.5
-20564.7
-21101.3
-21580.6
-21998.4
-22350.4
-22632.3
-22839.6
-22967.9
-23012.9
-22970.4
-22836.4
-22607.4
-22279.9
-21851.2
-21318.5
-20680.1
-19934.3
-19080.1
-18117.1
-17045.3
-15865.3
-14578.5
-13186.8
-11692.9
-10101.1
-8416.98
-6648.69
-4807.62
-2909.35
-974.081
-772.061
-2302.95
-3797.69
-5240.82
-6624.33
-7945.89
-9206.72
-10409.9
-11559.1
-12658
-13709.9
-14717.4
-15682.4
-16605.9
-17488.4
-18329.7
-19128.6
-19883.5
-20592.4
-21252.5
-21860.7
-22413.4
-22906.7
-23336.5
-23698.4
-23987.9
-24200.5
-24331.6
-24376.7
-24331.6
-24192
-23954.2
-23614.7
-23170.3
-22618.3
-21956.4
-21182.8
-20295.9
-19294.9
-18179.2
-16948.5
-15603.1
-14143.6
-12571.2
-10888
-9097.61
-7206.21
-5224.15
-3167.94
-1061.92
-876.421
-2606.58
-4278.02
-5870.6
-7377.44
-8799.95
-10143.7
-11415.5
-12622.5
-13770.8
-14865.5
-15910.6
-16909
-17862.7
-18772.5
-19638.6
-20460.3
-21236.1
-21964
-22641.4
-23265.1
-23831.7
-24337.1
-24777.3
-25147.7
-25443.8
-25660.8
-25794.2
-25839.4
-25791.8
-25647.3
-25401.7
-25051.6
-24593.4
-24024.2
-23341.5
-22542.9
-21626.8
-20591.5
-19435.7
-18158.2
-16757.9
-15233.6
-13584.1
-11808.5
-9906.59
-7880.39
-5736.7
-3491.1
-1172.82
-1022.78
-3024.18
-4922.41
-6694.49
-8340.32
-9870.32
-11298.1
-12637
-13898.6
-15092.3
-16225.5
-17304
-18331.8
-19311.6
-20245
-21132.4
-21973.4
-22766.9
-23510.9
-24202.9
-24839.8
-25418
-25933.7
-26382.5
-26760
-27061.5
-27282.3
-27417.6
-27462.7
-27413
-27264.1
-27011.9
-26652.6
-26182.6
-25598.7
-24898
-24078
-23136.4
-22071.1
-20879.8
-19560.4
-18110
-16525.3
-14801.9
-12934.2
-10916
-8741.25
-6407.92
-3924.98
-1324.64
-1250.5
-3648.48
-5847.99
-7836.77
-9636.8
-11278
-12788
-14189.5
-15500.3
-16733.9
-17900.4
-19007.2
-20059.6
-21061.1
-22013.8
-22918.7
-23775.6
-24583.4
-25340.5
-26044.3
-26691.7
-27279.4
-27803.3
-28259.1
-28642.2
-28948.1
-29171.8
-29308.6
-29353.6
-29302.1
-29149.7
-28892.1
-28525.3
-28045.5
-27449.5
-26734.1
-25896.3
-24933.6
-23843.1
-22622
-21266.6
-19772.6
-18134
-16342.4
-14386.1
-12249.7
-9913.08
-7354.95
-4562.28
-1556.71
-1662.52
-4685.75
-7291.15
-9534.68
-11497.2
-13246.1
-14830.8
-16286.6
-17638.7
-18904.8
-20097.9
-21227
-22298.5
-23316.8
-24284.4
-25202.7
-26071.6
-26890.4
-27657.3
-28370
-29025.5
-29620.3
-30150.3
-30611.4
-30998.8
-31308
-31533.9
-31671.7
-31716.6
-31663.8
-31508.6
-31246.9
-30874.3
-30387.1
-29781.8
-29055
-28203.7
-27224.5
-26114.5
-24869.8
-23485.9
-21956.6
-20273.2
-18423.1
-16387.4
-14138
-11633.1
-8814.18
-5609.3
-1972
-2587.81
-6645.61
-9772.13
-12286.3
-14399.4
-16239
-17882.6
-19379.3
-20761.4
-22050.7
-23262.4
-24406.9
-25491.7
-26521.4
-27499.2
-28426.4
-29303.5
-30129.6
-30903.2
-31621.9
-32282.8
-32882.3
-33416.5
-33881
-34271.3
-34582.6
-34810
-34948.6
-34993.4
-34939.6
-34782.6
-34518
-34141.6
-33649.4
-33037.8
-32303.3
-31442.6
-30452.3
-29328.8
-28067.9
-26664
-25109.6
-23393.9
-21500.2
-19402.4
-17058.8
-14399.5
-11305.9
-7575.65
-2899.47
-5312.02
-10907.7
-14551.5
-17274
-19486.4
-21380.2
-23057
-24575.9
-25973.9
-27275.3
-28496.6
-29649.1
-30740.5
-31776.1
-32758.9
-33690.8
-34571.9
-35401.8
-36178.7
-36900.4
-37564
-38165.9
-38702.1
-39168.4
-39560.2
-39872.5
-40100.7
-40239.6
-40284.3
-40230
-40072.1
-39806.1
-39427.7
-38933
-38318.2
-37579.9
-36714.4
-35718.5
-34588.2
-33318.9
-31904.7
-30337.3
-28604.5
-26687.1
-24554.6
-22154.9
-19394.6
-16090.6
-11841
-5624.76
2595.97
6669.23
9810.02
12337.3
14462.7
16313.8
17968.1
19475
20866.6
22165
23385.2
24537.8
25630.2
26667.1
27651.6
28585.2
29468.3
30300
31078.7
31802.2
32467.4
33070.8
33608.5
34076
34468.8
34782
35010.8
35150.1
35195
35140.7
34982.5
34715.9
34336.8
33841.1
33225.2
32485.6
31618.9
30621.7
29490.3
28220.6
26807
25242
23514.6
21608.3
19497
17138.7
14463.8
11353.4
7605.11
2909.58
1914.21
5293.76
8113.99
10485.6
12528.3
14331
15954.6
17440.3
18816.6
20103.1
21313.8
22458.6
23544.3
24575.5
25554.9
26484
27362.9
28190.9
28966.3
29686.8
30349.3
30950.3
31485.9
31951.6
32343
32655.1
32883.1
33022.1
33067.1
33013.2
32856
32590.8
32213.7
31720.5
31107.8
30372
29510
28518.5
27393.9
26132.4
24729
23176.7
21465.9
19582.1
17503.1
15195
12604.7
9652.01
6226.39
2226.73
1455.75
4194.2
6635.53
8788.28
10700.3
12420.7
13989.1
15435.8
16783
18046.8
19239.2
20368.7
21441.3
22461
23430.4
24350.4
25221.2
26041.9
26810.6
27525.1
28182.2
28778.5
29309.9
29772.1
30160.6
30470.6
30697.2
30835.4
30880.5
30827.6
30672.2
30409.9
30036.5
29548.4
28942
28213.9
27361.1
26380.7
25269.5
24024.1
22640.4
21112.7
19433.3
17591.3
15570.7
13348.4
10892.6
8162.81
5120.32
1766.09
1172.7
3444.06
5557.11
7491.01
9257.23
10877.9
12375.7
13770.1
15077.2
16309.1
17475.3
18582.7
19636.3
20639.3
21593.7
22500.4
23359.2
24168.9
24927.8
25633.3
26282.4
26871.5
27396.8
27853.8
28238
28544.7
28769
28906.2
28951.3
28899.8
28747.1
28489
28121.4
27640.7
27043.5
26326.8
25487.6
24523.5
23431.8
22209.7
20854.2
19361.2
17725.4
15939.8
13994.6
11877.3
9573.06
7068.25
4360.4
1479.76
988.356
2928.79
4780.51
6519.97
8144.03
9660.04
11079.2
12413.1
13672
14864.7
15998
17077.4
18106.4
19087.8
20022.9
20912.2
21755.1
22550.4
23296.2
23989.9
24628.4
25208.1
25725.1
26175.2
26553.7
26856
27077.4
27213.1
27258.3
27208.6
27059.4
26806.8
26446.7
25975.7
25390.6
24688.6
23867.2
22924.1
21857.4
20665
19345
17895
16312
14592.6
12732.4
10726.8
8572.37
6270.12
3832.07
1291.04
859.413
2558.16
4203.94
5777.25
7270.48
8683.89
10021.9
11290.4
12495.8
13643.7
14738.9
15785
16784.9
17740.2
18651.8
19519.7
20343.3
21120.9
21850.6
22529.7
23155
23723
24229.8
24671.1
25042.5
25339.4
25557.1
25690.9
25736.2
25688.5
25543.7
25297.7
24946.7
24487.6
23917.2
23233.1
22433.2
21515.5
20478.7
19321.6
18043.1
16642.5
15118.9
13471.7
11700.7
9806.57
7792.55
5666.63
3445.12
1156.63
763.108
2277.11
3757.49
5189.35
6564.63
7880.58
9137.91
10339.2
11487.7
12586.8
13639.5
14648.2
15614.6
16539.9
17424.2
18267.3
19068
19824.8
20535.5
21197.2
21806.9
22361.1
22855.7
23286.6
23649.5
23939.8
24153
24284.4
24329.7
24284.5
24144.7
23906.4
23566.1
23120.8
22567.6
21904.3
21129.2
20240.7
19238.1
18120.9
16888.9
15542.7
14083.1
12511.6
10830.7
9044.67
7160.12
5187.85
3144.47
1053.76
687.046
2053.17
3396.78
4706.73
5975.81
7200.29
8379.03
9512.52
10602.1
11649.6
12656.6
13624.4
14553.9
15445.5
16299.2
17114
17888.8
18621.8
19310.6
19952.4
20544.2
21082.2
21562.8
21981.6
22334.6
22617.3
22825.2
22953.8
22999
22956.4
22822.2
22592.6
22264.5
21834.7
21300.9
20661.1
19913.8
19058
18093.3
17019.8
15838.3
14550.2
13157.7
11663.7
10072.6
8390.45
6625.53
4789.42
2897.65
970.028
624.1
1866.81
3093.79
4296.64
5469.31
6607.98
7710.71
8776.85
9806.56
10800.4
11759.1
12683
13572.5
14427.5
15247.3
16030.9
16776.9
17483.2
18147.5
18767
19338.4
19858.3
20322.9
20728.1
21069.8
21343.7
21545.5
21670.9
21715.7
21676
21547.9
21328
21013.1
20600.6
20088.3
19474.3
18757.5
17937.3
17013.6
15987.3
14859.5
13632.5
12309.2
10893.7
9391.42
7809.21
6156.05
4443.33
2685.15
898.323
569.946
1705.91
2830.48
3937.26
5021.29
6079.06
7108.34
8107.9
9077.19
10016
10924.3
11802.1
12648.9
13464.4
14247.6
14997.2
15711.6
16388.6
17025.9
17620.6
18169.5
18669.3
19116.1
19506
19835.1
20099.2
20294.1
20415.7
20460
20423.2
20301.7
20092.2
19791.8
19398
18908.9
18322.8
17638.9
16857
15977.2
15000.7
13929.4
12765.7
11513.4
10177.1
8762.57
7277.18
5729.91
4131.56
2494.87
834.323
521.842
1562.62
2594.92
3613.8
4615.22
5596.08
6554.18
7488.01
8396.63
9279.37
10135.7
10965.2
11767.1
12540.7
13284.7
13997.7
14678
15323.3
15931.2
16498.8
17023.2
17500.8
17928.1
18301.2
18616.4
18869.6
19056.7
19174
19217.6
19183.8
19069.2
18870.8
18585.9
18212.2
17747.8
17191.6
16542.8
15801.3
14967.9
14043.8
13031.1
11932.8
10752.9
9496.16
8168.74
6777.93
5332.4
3842.26
2318.99
775.299
477.979
1431.74
2379.05
3316.04
4239.43
5146.54
6035.3
6904.17
7751.98
8577.81
9380.86
10160.3
10915.3
11644.7
12347.3
13021.3
13665.1
14276.4
14852.6
15391.1
15888.8
16342.5
16748.5
17103.4
17403.3
17644.5
17823.2
17935.6
17978.1
17947.3
17840
17653.3
17384.8
17032.3
16594.2
16069.5
15457.7
14758.8
13973.8
13104.2
12152.2
11121
10014.7
8838.24
7597.6
6299.92
4953.41
3567.43
2152.36
719.457
437.127
1309.69
2177.25
3036.77
3885.55
4721.32
5542.22
6346.72
7133.6
7901.8
8650.35
9378.26
10084.5
10767.8
11426.7
12059.7
12664.8
13239.9
13782.4
14289.7
14758.9
15186.7
15570
15905.1
16188.6
16416.8
16586.1
16693
16734.2
16706.4
16606.6
16432.1
16180.8
15850.5
15440
14948.4
14375.2
13720.8
12986.2
12173
11283.5
10321.1
9289.62
8194.08
7040.28
5834.99
4585.89
3301.58
1991.47
665.589
398.425
1193.95
1985.56
2770.82
3547.53
4313.75
5067.85
5808.4
6534.19
7244.09
7937.07
8612.05
9267.87
9903.25
10516.7
11106.6
11671
12207.8
12714.6
13188.9
13627.7
14028.1
14386.9
14700.9
14966.7
15180.9
15340.1
15441.1
15480.6
15455.7
15363.6
15201.8
14968.2
14661.2
14279.5
13822.2
13289.3
12681.1
11998.6
11243.5
10418.3
9526.04
8570.7
7556.97
6490.4
5377.32
4224.87
3040.89
1833.89
612.866
361.261
1082.74
1801.11
2514.43
3220.89
3918.87
4606.93
5283.76
5948.22
6599.2
7235.63
7856.41
8460.37
9046.18
9612.39
10157.3
10679.2
11175.9
11645.1
12084.5
12491.2
12862.6
13195.6
13487.1
13734.1
13933.3
14081.7
14176.1
14213.6
14191.5
14107.2
13958.4
13743.4
13460.4
13108.4
12686.9
12195.6
11635
11006.2
10311
9551.53
8730.95
7852.98
6922.06
5943.37
4922.79
3866.84
2782.68
1677.94
560.712
325.19
974.739
1621.82
2264.85
2902.36
3532.99
4155.48
4768.68
5371.51
5962.93
6541.9
7107.33
7658.06
8192.8
8710.14
9208.47
9686.04
10140.9
10570.9
10973.7
11346.8
11687.6
11993.4
12261.2
12488.3
12671.6
12808.3
12895.6
12930.8
12911.4
12835
12699.6
12503.5
12245.4
11924.1
11539.3
11090.9
10579.4
10005.9
9371.91
8679.74
7932.25
7132.93
6285.92
5395.98
4468.49
3509.37
2525.08
1522.46
508.73
289.889
869.004
1446.15
2020.05
2589.49
3153.35
3710.54
4260.05
4800.91
5332.16
5852.8
6361.81
6858.08
7340.38
7807.37
8257.54
8689.25
9100.67
9489.81
9854.53
10192.5
10501.4
10778.7
11021.7
11227.8
11394.3
11518.8
11598.4
11631
11614.1
11545.7
11424
11247.3
11014.6
10724.9
10377.9
9973.58
9512.4
8995.39
8424.09
7800.6
7127.55
6408.17
5646.22
4846.03
4012.44
3150.79
2266.83
1366.65
456.649
255.12
764.834
1272.97
1778.52
2280.48
2777.91
3269.9
3755.59
4234.09
4704.55
5166.06
5617.67
6058.35
6486.97
6902.27
7302.89
7687.3
8053.84
8400.71
8725.95
9027.51
9303.2
9550.75
9767.82
9952.05
10101.1
10212.5
10284.1
10313.7
10299.2
10238.8
10130.9
9974.15
9767.45
9510.11
9201.77
8842.5
8432.78
7973.55
7466.22
6912.7
6315.39
5677.18
5001.46
4292.09
3553.37
2790.02
2007.11
1210.01
404.296
220.712
661.717
1101.47
1539.16
1973.99
2405.17
2831.96
3253.6
3669.35
4078.44
4480.08
4873.39
5257.47
5631.28
5993.71
6343.52
6679.35
6999.73
7303.03
7587.55
7851.44
8092.78
8309.57
8499.75
8661.24
8791.95
8889.82
8952.86
8979.16
8966.95
8914.62
8820.77
8684.22
8504.07
8279.7
8010.84
7697.56
7340.32
6939.97
6497.77
6015.43
5495.07
4939.22
4350.88
3733.41
3090.57
2426.45
1745.46
1052.22
351.568
186.537
559.284
931.051
1301.19
1669.07
2034.06
2395.55
2752.91
3105.5
3452.69
3793.77
4128
4454.57
4772.59
5081.09
5379
5665.13
5938.19
6196.8
6439.48
6664.64
6870.62
7055.71
7218.14
7356.13
7467.88
7551.65
7605.72
7628.48
7618.4
7574.13
7494.48
7378.44
7225.26
7034.44
6805.75
6539.27
6235.41
5894.92
5518.91
5108.82
4666.5
4194.12
3694.23
3169.71
2623.75
2059.82
1481.66
893.163
298.419
152.509
457.276
761.29
1064.05
1365.07
1663.85
1959.9
2252.71
2541.79
2826.57
3106.5
3380.94
3649.23
3910.62
4164.3
4409.35
4644.8
4869.58
5082.53
5282.41
5467.92
5637.67
5790.24
5924.18
6038.01
6130.25
6199.44
6244.19
6263.16
6255.1
6218.89
6153.55
6058.28
5932.44
5775.65
5587.72
5368.73
5119.03
4839.25
4530.31
4193.43
3830.12
3442.19
3031.74
2601.13
2152.99
1690.17
1215.72
732.835
244.848
118.566
355.514
591.905
827.371
1061.54