/*--------------------------------*- C++ -*----------------------------------*\
| =========                 |                                                 |
| \\      /  F ield         | OpenFOAM: The Open Source CFD Toolbox           |
|  \\    /   O peration     | Version:  5.x                                   |
|   \\  /    A nd           | Web:      www.OpenFOAM.org                      |
|    \\/     M anipulation  |                                                 |
\*---------------------------------------------------------------------------*/
FoamFile
{
    version     2.0;
    format      ascii;
    class       volScalarField;
    location    "1.2";
    object      gradTz;
}
// * * * * * * * * * * * * * * * * * * * * * * * * * * * * * * * * * * * * * //

dimensions      [0 -1 0 1 0 0 0];

internalField   nonuniform List<scalar> 
25000
(
-6333.93
-6850.47
-6999.76
-7052.22
-7073.75
-7083.49
-7088
-7089.95
-7090.52
-7090.32
-7089.68
-7088.78
-7087.73
-7086.6
-7085.44
-7084.29
-7083.15
-7082.05
-7081
-7080.02
-7079.1
-7078.26
-7077.51
-7076.86
-7076.3
-7075.86
-7075.53
-7075.33
-7075.25
-7075.31
-7075.5
-7075.84
-7076.32
-7076.94
-7077.7
-7078.58
-7079.57
-7080.64
-7081.75
-7082.82
-7083.74
-7084.31
-7084.22
-7082.84
-7078.97
-7069.96
-7049.2
-6997.57
-6849.14
-6333.48
-6850.47
-7839.56
-8182.36
-8316.97
-8375.69
-8403.04
-8415.91
-8421.45
-8423.04
-8422.38
-8420.41
-8417.69
-8414.53
-8411.15
-8407.67
-8404.2
-8400.8
-8397.5
-8394.36
-8391.41
-8388.66
-8386.15
-8383.9
-8381.94
-8380.28
-8378.94
-8377.96
-8377.34
-8377.11
-8377.28
-8377.87
-8378.88
-8380.32
-8382.18
-8384.44
-8387.09
-8390.06
-8393.28
-8396.6
-8399.82
-8402.61
-8404.41
-8404.25
-8400.41
-8389.48
-8364.29
-8307.92
-8175.79
-7835.58
-6849.14
-6999.77
-8182.38
-8628.58
-8816.02
-8901.69
-8942.76
-8962.34
-8970.74
-8972.98
-8971.68
-8968.3
-8963.71
-8958.43
-8952.79
-8947
-8941.22
-8935.56
-8930.08
-8924.86
-8919.95
-8915.38
-8911.21
-8907.47
-8904.2
-8901.44
-8899.22
-8897.58
-8896.56
-8896.17
-8896.46
-8897.43
-8899.11
-8901.5
-8904.6
-8908.37
-8912.78
-8917.73
-8923.09
-8928.65
-8934.07
-8938.81
-8942
-8942.14
-8936.57
-8920.22
-8882.74
-8800.96
-8617.65
-8175.76
-6997.55
-7052.25
-8317.05
-8816.09
-9034.76
-9138.08
-9188.71
-9213.05
-9223.35
-9225.75
-9223.56
-9218.64
-9212.12
-9204.69
-9196.78
-9188.69
-9180.62
-9172.71
-9165.07
-9157.79
-9150.93
-9144.56
-9138.74
-9133.52
-9128.96
-9125.11
-9122.01
-9119.73
-9118.29
-9117.76
-9118.15
-9119.51
-9121.86
-9125.19
-9129.51
-9134.78
-9140.94
-9147.86
-9155.38
-9163.2
-9170.88
-9177.7
-9182.53
-9183.44
-9177.09
-9157.26
-9111.64
-9013.75
-8800.84
-8307.81
-7049.15
-7073.82
-8375.86
-8901.91
-9138.26
-9252.33
-9308.99
-9336.27
-9347.5
-9349.55
-9346.19
-9339.59
-9331.07
-9321.46
-9311.28
-9300.9
-9290.55
-9280.42
-9270.64
-9261.32
-9252.55
-9244.4
-9236.95
-9230.28
-9224.44
-9219.51
-9215.55
-9212.62
-9210.79
-9210.1
-9210.6
-9212.34
-9215.34
-9219.61
-9225.14
-9231.89
-9239.78
-9248.68
-9258.35
-9268.46
-9278.46
-9287.5
-9294.24
-9296.43
-9290.25
-9268.75
-9218.5
-9111.37
-8882.39
-8364.03
-7069.86
-7083.6
-8403.37
-8943.22
-9189.19
-9309.34
-9369.36
-9398.06
-9409.37
-9410.59
-9405.8
-9397.38
-9386.8
-9374.99
-9362.55
-9349.89
-9337.3
-9324.98
-9313.1
-9301.77
-9291.11
-9281.22
-9272.17
-9264.06
-9256.97
-9250.98
-9246.17
-9242.61
-9240.38
-9239.54
-9240.15
-9242.26
-9245.9
-9251.09
-9257.81
-9266.03
-9275.64
-9286.49
-9298.32
-9310.73
-9323.1
-9334.49
-9343.39
-9347.32
-9342.14
-9320.46
-9268.23
-9156.52
-8919.51
-8389
-7078.79
-7088.2
-8416.45
-8963.16
-9214
-9337.15
-9398.65
-9427.62
-9438.34
-9438.33
-9431.89
-9421.53
-9408.84
-9394.82
-9380.14
-9365.23
-9350.43
-9335.97
-9322.02
-9308.73
-9296.22
-9284.61
-9274
-9264.49
-9256.17
-9249.15
-9243.5
-9239.33
-9236.7
-9235.72
-9236.43
-9238.9
-9243.17
-9249.26
-9257.15
-9266.8
-9278.1
-9290.88
-9304.85
-9319.58
-9334.38
-9348.22
-9359.47
-9365.52
-9362.01
-9341.27
-9288.92
-9175.66
-8935.33
-8399.59
-7082.55
-7090.24
-8422.29
-8972.03
-9224.93
-9349.15
-9410.82
-9439.25
-9448.85
-9447.32
-9439.05
-9426.68
-9411.85
-9395.63
-9378.72
-9361.61
-9344.65
-9328.08
-9312.12
-9296.92
-9282.61
-9269.33
-9257.2
-9246.32
-9236.8
-9228.76
-9222.3
-9217.53
-9214.52
-9213.39
-9214.2
-9217.02
-9221.9
-9228.86
-9237.9
-9248.95
-9261.91
-9276.59
-9292.68
-9309.71
-9326.95
-9343.31
-9357.08
-9365.53
-9364.17
-9345.17
-9293.96
-9181.07
-8940.2
-8403
-7083.78
-7090.94
-8424.25
-8974.89
-9228.17
-9352.22
-9413.21
-9440.52
-9448.65
-9445.38
-9435.17
-9420.74
-9403.76
-9385.36
-9366.28
-9347.01
-9327.94
-9309.34
-9291.42
-9274.36
-9258.31
-9243.41
-9229.8
-9217.59
-9206.92
-9197.89
-9190.64
-9185.28
-9181.9
-9180.63
-9181.53
-9184.69
-9190.16
-9197.97
-9208.12
-9220.53
-9235.11
-9251.65
-9269.82
-9289.12
-9308.8
-9327.72
-9344.09
-9355.14
-9356.26
-9339.52
-9290.27
-9178.94
-8939.15
-8402.6
-7083.69
-7090.9
-8424.06
-8974.35
-9227.02
-9350.15
-9409.92
-9435.74
-9442.17
-9437.02
-9424.82
-9408.3
-9389.21
-9368.67
-9347.46
-9326.11
-9305
-9284.42
-9264.61
-9245.76
-9228.02
-9211.56
-9196.52
-9183.03
-9171.24
-9161.27
-9153.25
-9147.32
-9143.58
-9142.16
-9143.16
-9146.64
-9152.68
-9161.31
-9172.52
-9186.26
-9202.41
-9220.75
-9240.94
-9262.48
-9284.57
-9306.03
-9325.06
-9338.8
-9342.6
-9328.46
-9281.67
-9172.59
-8934.85
-8400.12
-7082.89
-7090.44
-8422.66
-8971.9
-9223.37
-9345.13
-9403.35
-9427.48
-9432.06
-9424.98
-9410.76
-9392.19
-9371.02
-9348.4
-9325.14
-9301.76
-9278.69
-9256.22
-9234.6
-9214.02
-9194.67
-9176.71
-9160.3
-9145.58
-9132.7
-9121.82
-9113.07
-9106.59
-9102.51
-9100.95
-9102.03
-9105.83
-9112.41
-9121.82
-9134.06
-9149.07
-9166.72
-9186.8
-9208.96
-9232.67
-9257.11
-9281.09
-9302.75
-9319.22
-9325.79
-9314.43
-9270.37
-9163.96
-8928.78
-8396.53
-7081.7
-7089.76
-8420.6
-8968.4
-9218.34
-9338.49
-9394.99
-9417.31
-9420
-9410.97
-9394.76
-9374.18
-9350.99
-9326.38
-9301.14
-9275.84
-9250.89
-9226.61
-9203.25
-9181.03
-9160.14
-9140.75
-9123.03
-9107.13
-9093.23
-9081.48
-9072.03
-9065.02
-9060.61
-9058.92
-9060.07
-9064.16
-9071.27
-9081.43
-9094.64
-9110.86
-9129.95
-9151.7
-9175.74
-9201.54
-9228.26
-9254.68
-9278.93
-9298.1
-9307.45
-9298.93
-9257.73
-9154.16
-8921.82
-8392.37
-7080.31
-7088.97
-8418.2
-8964.37
-9212.64
-9331.05
-9385.77
-9406.24
-9407.06
-9396.11
-9377.97
-9355.45
-9330.33
-9303.81
-9276.69
-9249.55
-9222.82
-9196.83
-9171.83
-9148.06
-9125.7
-9104.95
-9085.99
-9068.99
-9054.11
-9041.53
-9031.41
-9023.91
-9019.18
-9017.36
-9018.59
-9022.95
-9030.54
-9041.41
-9055.55
-9072.92
-9093.38
-9116.71
-9142.55
-9170.33
-9199.23
-9228
-9254.76
-9276.55
-9288.64
-9282.93
-9244.6
-9143.93
-8914.51
-8387.98
-7078.85
-7088.13
-8415.68
-8960.16
-9206.7
-9323.36
-9376.3
-9394.96
-9393.94
-9381.14
-9361.16
-9336.79
-9309.84
-9281.51
-9252.62
-9223.76
-9195.35
-9167.74
-9141.2
-9115.96
-9092.23
-9070.21
-9050.08
-9032.03
-9016.24
-9002.88
-8992.13
-8984.16
-8979.13
-8977.19
-8978.48
-8983.1
-8991.15
-9002.68
-9017.69
-9036.13
-9057.88
-9082.7
-9110.23
-9139.9
-9170.87
-9201.87
-9231.01
-9255.33
-9270.05
-9267.07
-9231.53
-9133.73
-8907.19
-8383.59
-7077.39
-7087.3
-8413.17
-8955.96
-9200.81
-9315.76
-9366.96
-9383.89
-9381.12
-9366.57
-9344.84
-9318.74
-9290.08
-9260.06
-9229.51
-9199.03
-9169.06
-9139.95
-9111.97
-9085.36
-9060.36
-9037.14
-9015.93
-8996.9
-8980.25
-8966.17
-8954.83
-8946.42
-8941.11
-8939.05
-8940.4
-8945.26
-8953.73
-8965.87
-8981.69
-9001.14
-9024.09
-9050.31
-9079.42
-9110.85
-9143.75
-9176.85
-9208.24
-9234.93
-9252.15
-9251.77
-9218.91
-9123.85
-8900.1
-8379.32
-7075.96
-7086.49
-8410.76
-8951.93
-9195.16
-9308.47
-9358.05
-9373.33
-9368.93
-9352.75
-9329.39
-9301.68
-9271.42
-9239.84
-9207.77
-9175.8
-9144.38
-9113.88
-9084.57
-9056.71
-9030.51
-9006.21
-8983.99
-8964.06
-8946.61
-8931.86
-8919.98
-8911.16
-8905.59
-8903.42
-8904.82
-8909.9
-8918.76
-8931.47
-8948.04
-8968.41
-8992.47
-9019.97
-9050.54
-9083.6
-9118.3
-9153.35
-9186.82
-9215.73
-9235.28
-9237.33
-9206.99
-9114.5
-8893.39
-8375.28
-7074.62
-7085.74
-8408.5
-8948.16
-9189.87
-9301.68
-9349.74
-9363.51
-9357.59
-9339.91
-9315.06
-9285.87
-9254.16
-9221.15
-9187.68
-9154.35
-9121.62
-9089.85
-9059.33
-9030.31
-9003.04
-8977.73
-8954.59
-8933.84
-8915.67
-8900.3
-8887.92
-8878.74
-8872.92
-8870.66
-8872.1
-8877.38
-8886.59
-8899.82
-8917.06
-8938.28
-8963.35
-8992.02
-9023.93
-9058.48
-9094.82
-9131.65
-9167.04
-9197.98
-9219.68
-9223.96
-9195.94
-9105.84
-8887.17
-8371.53
-7073.37
-7085.05
-8406.43
-8944.71
-9185.04
-9295.47
-9342.15
-9354.55
-9347.27
-9328.23
-9302.03
-9271.51
-9238.49
-9204.19
-9169.46
-9134.91
-9101
-9068.08
-9036.47
-9006.42
-8978.18
-8951.97
-8928
-8906.51
-8887.69
-8871.76
-8858.94
-8849.41
-8843.38
-8841.03
-8842.51
-8847.96
-8857.5
-8871.18
-8889.04
-8911.01
-8936.99
-8966.72
-8999.82
-9035.72
-9073.54
-9111.97
-9149.09
-9181.88
-9205.51
-9211.82
-9185.9
-9097.97
-8881.51
-8368.13
-7072.23
-7084.43
-8404.58
-8941.63
-9180.73
-9289.93
-9335.39
-9346.56
-9338.07
-9317.82
-9290.43
-9258.74
-9224.56
-9189.12
-9153.28
-9117.64
-9082.68
-9048.76
-9016.18
-8985.22
-8956.11
-8929.1
-8904.41
-8882.25
-8862.86
-8846.45
-8833.22
-8823.4
-8817.18
-8814.74
-8816.25
-8821.86
-8831.68
-8845.77
-8864.16
-8886.81
-8913.58
-8944.25
-8978.42
-9015.5
-9054.62
-9094.49
-9133.13
-9167.55
-9192.91
-9201.02
-9176.97
-9090.96
-8876.47
-8365.09
-7071.21
-7083.9
-8402.97
-8938.95
-9176.98
-9285.11
-9329.5
-9339.62
-9330.07
-9308.78
-9280.36
-9247.64
-9212.46
-9176.04
-9139.23
-9102.66
-9066.79
-9032
-8998.59
-8966.83
-8936.99
-8909.28
-8883.96
-8861.24
-8841.34
-8824.5
-8810.93
-8800.85
-8794.46
-8791.95
-8793.49
-8799.24
-8809.29
-8823.74
-8842.6
-8865.82
-8893.29
-8924.76
-8959.85
-8997.96
-9038.22
-9079.31
-9119.28
-9155.11
-9181.96
-9191.64
-9169.21
-9084.87
-8872.1
-8362.45
-7070.33
-7083.44
-8401.61
-8936.69
-9173.82
-9281.05
-9324.55
-9333.77
-9323.34
-9301.17
-9271.88
-9238.31
-9202.29
-9165.04
-9127.42
-9090.07
-9053.44
-9017.91
-8983.8
-8951.38
-8920.91
-8892.62
-8866.77
-8843.56
-8823.25
-8806.05
-8792.2
-8781.9
-8775.36
-8772.79
-8774.36
-8780.21
-8790.47
-8805.21
-8824.46
-8848.17
-8876.22
-8908.37
-8944.23
-8983.2
-9024.41
-9066.54
-9107.63
-9144.65
-9172.75
-9183.74
-9162.67
-9079.75
-8868.41
-8360.23
-7069.59
-7083.08
-8400.52
-8934.86
-9171.27
-9277.78
-9320.55
-9329.06
-9317.91
-9295.04
-9265.05
-9230.79
-9194.09
-9156.17
-9117.91
-9079.92
-9042.67
-9006.56
-8971.88
-8938.93
-8907.95
-8879.2
-8852.92
-8829.33
-8808.68
-8791.19
-8777.1
-8766.63
-8759.98
-8757.36
-8758.94
-8764.89
-8775.31
-8790.28
-8809.85
-8833.95
-8862.46
-8895.16
-8931.64
-8971.31
-9013.28
-9056.24
-9098.23
-9136.21
-9165.32
-9177.37
-9157.4
-9075.61
-8865.44
-8358.44
-7068.99
-7082.8
-8399.69
-8933.49
-9169.35
-9275.31
-9317.54
-9325.5
-9313.82
-9290.42
-9259.9
-9225.12
-9187.9
-9149.49
-9110.73
-9072.27
-9034.56
-8998
-8962.9
-8929.54
-8898.19
-8869.09
-8842.48
-8818.6
-8797.69
-8779.99
-8765.72
-8755.11
-8748.38
-8745.72
-8747.32
-8753.33
-8763.87
-8779.03
-8798.83
-8823.22
-8852.09
-8885.2
-8922.14
-8962.34
-9004.89
-9048.48
-9091.14
-9129.84
-9159.72
-9172.56
-9153.43
-9072.49
-8863.19
-8357.09
-7068.54
-7082.62
-8399.14
-8932.57
-9168.06
-9273.65
-9315.52
-9323.12
-9311.08
-9287.32
-9256.45
-9221.32
-9183.77
-9145.02
-9105.93
-9067.15
-9029.13
-8992.28
-8956.89
-8923.26
-8891.66
-8862.32
-8835.49
-8811.42
-8790.34
-8772.49
-8758.11
-8747.41
-8740.62
-8737.94
-8739.55
-8745.6
-8756.23
-8771.5
-8791.45
-8816.05
-8845.15
-8878.53
-8915.79
-8956.33
-8999.27
-9043.28
-9086.4
-9125.58
-9155.97
-9169.35
-9150.77
-9070.4
-8861.69
-8356.18
-7068.24
-7082.53
-8398.86
-8932.11
-9167.41
-9272.82
-9314.51
-9321.93
-9309.71
-9285.77
-9254.73
-9219.42
-9181.69
-9142.77
-9103.53
-9064.58
-9026.42
-8989.41
-8953.88
-8920.12
-8888.38
-8858.93
-8831.99
-8807.82
-8786.66
-8768.74
-8754.3
-8743.55
-8736.74
-8734.04
-8735.65
-8741.73
-8752.39
-8767.73
-8787.76
-8812.45
-8841.68
-8875.19
-8912.61
-8953.33
-8996.46
-9040.68
-9084.02
-9123.45
-9154.09
-9167.73
-9149.43
-9069.36
-8860.94
-8355.73
-7068.09
-7082.53
-8398.86
-8932.11
-9167.41
-9272.82
-9314.51
-9321.93
-9309.71
-9285.77
-9254.72
-9219.42
-9181.69
-9142.77
-9103.53
-9064.58
-9026.42
-8989.41
-8953.88
-8920.12
-8888.38
-8858.93
-8831.99
-8807.83
-8786.66
-8768.74
-8754.3
-8743.56
-8736.74
-8734.04
-8735.65
-8741.73
-8752.4
-8767.73
-8787.76
-8812.46
-8841.68
-8875.19
-8912.61
-8953.33
-8996.46
-9040.68
-9084.03
-9123.45
-9154.09
-9167.74
-9149.44
-9069.36
-8860.94
-8355.73
-7068.09
-7082.62
-8399.14
-8932.57
-9168.06
-9273.65
-9315.52
-9323.12
-9311.08
-9287.32
-9256.45
-9221.32
-9183.77
-9145.02
-9105.93
-9067.15
-9029.14
-8992.28
-8956.89
-8923.26
-8891.66
-8862.32
-8835.49
-8811.42
-8790.35
-8772.5
-8758.11
-8747.42
-8740.63
-8737.94
-8739.55
-8745.61
-8756.23
-8771.51
-8791.46
-8816.05
-8845.16
-8878.54
-8915.8
-8956.34
-8999.28
-9043.29
-9086.41
-9125.59
-9155.97
-9169.35
-9150.77
-9070.41
-8861.69
-8356.18
-7068.24
-7082.8
-8399.69
-8933.49
-9169.35
-9275.3
-9317.54
-9325.5
-9313.82
-9290.42
-9259.9
-9225.12
-9187.9
-9149.49
-9110.73
-9072.27
-9034.56
-8998
-8962.9
-8929.54
-8898.19
-8869.09
-8842.48
-8818.6
-8797.7
-8779.99
-8765.73
-8755.12
-8748.39
-8745.73
-8747.33
-8753.34
-8763.88
-8779.04
-8798.84
-8823.23
-8852.1
-8885.21
-8922.15
-8962.35
-9004.9
-9048.49
-9091.15
-9129.85
-9159.73
-9172.57
-9153.44
-9072.5
-8863.2
-8357.09
-7068.54
-7083.08
-8400.52
-8934.86
-9171.27
-9277.77
-9320.55
-9329.06
-9317.91
-9295.04
-9265.05
-9230.79
-9194.09
-9156.17
-9117.91
-9079.92
-9042.68
-9006.56
-8971.88
-8938.93
-8907.96
-8879.21
-8852.92
-8829.33
-8808.68
-8791.2
-8777.11
-8766.63
-8759.99
-8757.37
-8758.95
-8764.9
-8775.32
-8790.3
-8809.86
-8833.96
-8862.48
-8895.17
-8931.65
-8971.32
-9013.3
-9056.26
-9098.25
-9136.22
-9165.33
-9177.38
-9157.42
-9075.62
-8865.44
-8358.44
-7068.99
-7083.44
-8401.61
-8936.69
-9173.82
-9281.05
-9324.55
-9333.77
-9323.34
-9301.17
-9271.88
-9238.31
-9202.29
-9165.04
-9127.42
-9090.07
-9053.44
-9017.91
-8983.8
-8951.38
-8920.91
-8892.63
-8866.77
-8843.57
-8823.26
-8806.06
-8792.2
-8781.91
-8775.38
-8772.81
-8774.37
-8780.23
-8790.49
-8805.23
-8824.47
-8848.19
-8876.24
-8908.39
-8944.24
-8983.22
-9024.43
-9066.56
-9107.65
-9144.66
-9172.77
-9183.75
-9162.69
-9079.76
-8868.42
-8360.24
-7069.59
-7083.9
-8402.97
-8938.95
-9176.98
-9285.11
-9329.5
-9339.62
-9330.07
-9308.78
-9280.36
-9247.64
-9212.46
-9176.04
-9139.24
-9102.66
-9066.8
-9032
-8998.59
-8966.84
-8936.99
-8909.29
-8883.96
-8861.24
-8841.35
-8824.51
-8810.94
-8800.86
-8794.48
-8791.97
-8793.51
-8799.25
-8809.31
-8823.76
-8842.62
-8865.84
-8893.31
-8924.78
-8959.87
-8997.98
-9038.24
-9079.33
-9119.31
-9155.14
-9181.98
-9191.66
-9169.23
-9084.89
-8872.11
-8362.46
-7070.33
-7084.43
-8404.58
-8941.63
-9180.73
-9289.93
-9335.38
-9346.56
-9338.07
-9317.82
-9290.43
-9258.74
-9224.56
-9189.12
-9153.28
-9117.64
-9082.68
-9048.76
-9016.18
-8985.22
-8956.12
-8929.11
-8904.42
-8882.26
-8862.87
-8846.46
-8833.23
-8823.41
-8817.19
-8814.76
-8816.27
-8821.88
-8831.7
-8845.79
-8864.19
-8886.83
-8913.61
-8944.27
-8978.44
-9015.53
-9054.65
-9094.51
-9133.16
-9167.58
-9192.93
-9201.04
-9176.99
-9090.98
-8876.49
-8365.1
-7071.21
-7085.05
-8406.43
-8944.71
-9185.04
-9295.47
-9342.15
-9354.55
-9347.27
-9328.23
-9302.03
-9271.51
-9238.49
-9204.19
-9169.46
-9134.91
-9101
-9068.08
-9036.47
-9006.43
-8978.18
-8951.97
-8928.01
-8906.52
-8887.7
-8871.78
-8858.95
-8849.43
-8843.4
-8841.05
-8842.53
-8847.98
-8857.52
-8871.21
-8889.06
-8911.04
-8937.02
-8966.75
-8999.85
-9035.75
-9073.57
-9112
-9149.12
-9181.91
-9205.54
-9211.85
-9185.93
-9097.99
-8881.53
-8368.13
-7072.23
-7085.74
-8408.49
-8948.16
-9189.87
-9301.67
-9349.73
-9363.5
-9357.59
-9339.91
-9315.06
-9285.87
-9254.16
-9221.15
-9187.68
-9154.35
-9121.62
-9089.85
-9059.33
-9030.32
-9003.05
-8977.74
-8954.6
-8933.85
-8915.69
-8900.32
-8887.94
-8878.75
-8872.94
-8870.68
-8872.12
-8877.4
-8886.62
-8899.85
-8917.09
-8938.31
-8963.38
-8992.05
-9023.96
-9058.51
-9094.85
-9131.68
-9167.07
-9198.02
-9219.71
-9223.99
-9195.97
-9105.87
-8887.19
-8371.54
-7073.37
-7086.49
-8410.76
-8951.93
-9195.15
-9308.47
-9358.05
-9373.33
-9368.93
-9352.75
-9329.39
-9301.68
-9271.42
-9239.84
-9207.77
-9175.8
-9144.39
-9113.88
-9084.58
-9056.71
-9030.52
-9006.21
-8984
-8964.07
-8946.63
-8931.87
-8919.99
-8911.18
-8905.61
-8903.45
-8904.84
-8909.93
-8918.79
-8931.5
-8948.07
-8968.44
-8992.5
-9020
-9050.57
-9083.64
-9118.34
-9153.38
-9186.86
-9215.77
-9235.32
-9237.36
-9207.02
-9114.53
-8893.41
-8375.29
-7074.62
-7087.3
-8413.17
-8955.96
-9200.81
-9315.75
-9366.96
-9383.88
-9381.12
-9366.57
-9344.84
-9318.74
-9290.08
-9260.06
-9229.51
-9199.03
-9169.07
-9139.95
-9111.97
-9085.37
-9060.36
-9037.15
-9015.94
-8996.91
-8980.26
-8966.18
-8954.85
-8946.44
-8941.13
-8939.08
-8940.42
-8945.29
-8953.76
-8965.91
-8981.73
-9001.18
-9024.13
-9050.34
-9079.45
-9110.89
-9143.79
-9176.89
-9208.28
-9234.97
-9252.19
-9251.8
-9218.94
-9123.87
-8900.12
-8379.33
-7075.97
-7088.13
-8415.68
-8960.15
-9206.7
-9323.36
-9376.29
-9394.95
-9393.94
-9381.14
-9361.16
-9336.79
-9309.84
-9281.51
-9252.62
-9223.76
-9195.35
-9167.75
-9141.21
-9115.97
-9092.24
-9070.22
-9050.09
-9032.05
-9016.25
-9002.9
-8992.15
-8984.18
-8979.16
-8977.22
-8978.51
-8983.13
-8991.18
-9002.71
-9017.72
-9036.17
-9057.92
-9082.74
-9110.27
-9139.94
-9170.91
-9201.92
-9231.05
-9255.37
-9270.09
-9267.1
-9231.57
-9133.75
-8907.21
-8383.6
-7077.39
-7088.97
-8418.2
-8964.37
-9212.64
-9331.05
-9385.77
-9406.24
-9407.06
-9396.11
-9377.97
-9355.45
-9330.33
-9303.81
-9276.69
-9249.56
-9222.83
-9196.83
-9171.84
-9148.06
-9125.71
-9104.96
-9086
-9069
-9054.13
-9041.55
-9031.43
-9023.93
-9019.21
-9017.39
-9018.62
-9022.98
-9030.58
-9041.45
-9055.59
-9072.96
-9093.42
-9116.75
-9142.59
-9170.38
-9199.28
-9228.05
-9254.8
-9276.59
-9288.68
-9282.97
-9244.63
-9143.96
-8914.53
-8387.99
-7078.86
-7089.76
-8420.6
-8968.4
-9218.34
-9338.49
-9394.99
-9417.3
-9420
-9410.97
-9394.76
-9374.18
-9350.99
-9326.38
-9301.14
-9275.84
-9250.89
-9226.61
-9203.26
-9181.04
-9160.15
-9140.76
-9123.04
-9107.15
-9093.25
-9081.5
-9072.05
-9065.05
-9060.64
-9058.95
-9060.1
-9064.2
-9071.3
-9081.46
-9094.68
-9110.9
-9130
-9151.75
-9175.79
-9201.58
-9228.3
-9254.73
-9278.98
-9298.14
-9307.5
-9298.97
-9257.76
-9154.19
-8921.84
-8392.38
-7080.32
-7090.44
-8422.66
-8971.9
-9223.36
-9345.13
-9403.35
-9427.48
-9432.06
-9424.98
-9410.76
-9392.19
-9371.02
-9348.4
-9325.14
-9301.77
-9278.69
-9256.23
-9234.6
-9214.03
-9194.68
-9176.72
-9160.31
-9145.59
-9132.72
-9121.84
-9113.09
-9106.61
-9102.54
-9100.98
-9102.06
-9105.86
-9112.45
-9121.86
-9134.1
-9149.11
-9166.77
-9186.85
-9209.01
-9232.71
-9257.16
-9281.13
-9302.8
-9319.26
-9325.83
-9314.47
-9270.41
-9163.99
-8928.8
-8396.54
-7081.7
-7090.9
-8424.06
-8974.35
-9227.01
-9350.15
-9409.92
-9435.74
-9442.17
-9437.02
-9424.82
-9408.3
-9389.21
-9368.67
-9347.46
-9326.11
-9305
-9284.43
-9264.62
-9245.76
-9228.03
-9211.57
-9196.53
-9183.05
-9171.25
-9161.28
-9153.27
-9147.34
-9143.61
-9142.19
-9143.19
-9146.68
-9152.72
-9161.35
-9172.56
-9186.31
-9202.45
-9220.79
-9240.99
-9262.53
-9284.62
-9306.08
-9325.11
-9338.84
-9342.64
-9328.5
-9281.71
-9172.63
-8934.87
-8400.13
-7082.89
-7090.94
-8424.25
-8974.88
-9228.17
-9352.22
-9413.21
-9440.52
-9448.65
-9445.37
-9435.17
-9420.73
-9403.76
-9385.36
-9366.28
-9347.02
-9327.95
-9309.35
-9291.43
-9274.37
-9258.32
-9243.42
-9229.81
-9217.6
-9206.93
-9197.91
-9190.66
-9185.3
-9181.93
-9180.65
-9181.56
-9184.72
-9190.2
-9198.01
-9208.16
-9220.58
-9235.16
-9251.69
-9269.86
-9289.17
-9308.85
-9327.76
-9344.14
-9355.18
-9356.3
-9339.57
-9290.31
-9178.97
-8939.17
-8402.61
-7083.69
-7090.24
-8422.29
-8972.03
-9224.93
-9349.15
-9410.82
-9439.25
-9448.85
-9447.31
-9439.05
-9426.68
-9411.85
-9395.63
-9378.72
-9361.61
-9344.65
-9328.09
-9312.12
-9296.92
-9282.62
-9269.34
-9257.21
-9246.33
-9236.82
-9228.78
-9222.32
-9217.55
-9214.55
-9213.41
-9214.23
-9217.05
-9221.94
-9228.9
-9237.94
-9248.99
-9261.96
-9276.64
-9292.73
-9309.75
-9327
-9343.36
-9357.13
-9365.58
-9364.22
-9345.21
-9294
-9181.1
-8940.22
-8403.01
-7083.78
-7088.2
-8416.45
-8963.15
-9214
-9337.15
-9398.64
-9427.62
-9438.33
-9438.33
-9431.88
-9421.53
-9408.84
-9394.82
-9380.13
-9365.23
-9350.43
-9335.97
-9322.02
-9308.73
-9296.23
-9284.62
-9274.01
-9264.5
-9256.19
-9249.16
-9243.52
-9239.34
-9236.73
-9235.74
-9236.45
-9238.93
-9243.2
-9249.29
-9257.18
-9266.83
-9278.14
-9290.92
-9304.89
-9319.62
-9334.42
-9348.26
-9359.51
-9365.56
-9362.05
-9341.31
-9288.95
-9175.69
-8935.35
-8399.6
-7082.55
-7083.6
-8403.36
-8943.22
-9189.19
-9309.33
-9369.36
-9398.06
-9409.37
-9410.59
-9405.8
-9397.38
-9386.8
-9374.99
-9362.55
-9349.89
-9337.3
-9324.98
-9313.1
-9301.77
-9291.12
-9281.22
-9272.18
-9264.07
-9256.98
-9250.99
-9246.18
-9242.63
-9240.4
-9239.56
-9240.17
-9242.28
-9245.93
-9251.12
-9257.84
-9266.06
-9275.67
-9286.52
-9298.35
-9310.76
-9323.14
-9334.53
-9343.42
-9347.36
-9342.18
-9320.49
-9268.26
-9156.55
-8919.53
-8389
-7078.79
-7073.82
-8375.86
-8901.91
-9138.26
-9252.33
-9308.99
-9336.27
-9347.5
-9349.55
-9346.18
-9339.58
-9331.07
-9321.45
-9311.28
-9300.89
-9290.55
-9280.42
-9270.64
-9261.32
-9252.55
-9244.4
-9236.95
-9230.28
-9224.44
-9219.51
-9215.56
-9212.63
-9210.8
-9210.11
-9210.62
-9212.36
-9215.36
-9219.63
-9225.16
-9231.91
-9239.81
-9248.7
-9258.38
-9268.49
-9278.49
-9287.53
-9294.27
-9296.46
-9290.28
-9268.78
-9218.53
-9111.39
-8882.41
-8364.04
-7069.86
-7052.25
-8317.05
-8816.09
-9034.76
-9138.08
-9188.71
-9213.05
-9223.35
-9225.75
-9223.56
-9218.64
-9212.12
-9204.68
-9196.77
-9188.68
-9180.61
-9172.7
-9165.06
-9157.78
-9150.92
-9144.56
-9138.74
-9133.52
-9128.96
-9125.11
-9122.01
-9119.73
-9118.29
-9117.76
-9118.16
-9119.52
-9121.86
-9125.2
-9129.52
-9134.79
-9140.95
-9147.88
-9155.4
-9163.22
-9170.9
-9177.72
-9182.55
-9183.47
-9177.11
-9157.28
-9111.66
-9013.76
-8800.86
-8307.81
-7049.15
-6999.77
-8182.38
-8628.58
-8816.02
-8901.69
-8942.76
-8962.34
-8970.74
-8972.98
-8971.68
-8968.3
-8963.71
-8958.42
-8952.78
-8947
-8941.22
-8935.55
-8930.08
-8924.86
-8919.94
-8915.38
-8911.2
-8907.46
-8904.19
-8901.43
-8899.22
-8897.58
-8896.55
-8896.17
-8896.45
-8897.43
-8899.11
-8901.5
-8904.6
-8908.37
-8912.78
-8917.73
-8923.09
-8928.66
-8934.08
-8938.82
-8942.01
-8942.15
-8936.58
-8920.23
-8882.75
-8800.97
-8617.66
-8175.76
-6997.55
-6850.47
-7839.56
-8182.36
-8316.97
-8375.69
-8403.04
-8415.91
-8421.45
-8423.04
-8422.38
-8420.41
-8417.69
-8414.53
-8411.15
-8407.68
-8404.21
-8400.8
-8397.51
-8394.37
-8391.41
-8388.67
-8386.16
-8383.91
-8381.95
-8380.29
-8378.95
-8377.97
-8377.35
-8377.12
-8377.29
-8377.88
-8378.89
-8380.33
-8382.19
-8384.46
-8387.11
-8390.08
-8393.29
-8396.62
-8399.84
-8402.63
-8404.42
-8404.27
-8400.42
-8389.5
-8364.3
-8307.93
-8175.79
-7835.58
-6849.14
-6333.93
-6850.47
-6999.76
-7052.22
-7073.75
-7083.49
-7088
-7089.95
-7090.52
-7090.33
-7089.68
-7088.78
-7087.73
-7086.6
-7085.45
-7084.29
-7083.15
-7082.05
-7081.01
-7080.02
-7079.11
-7078.27
-7077.52
-7076.86
-7076.31
-7075.86
-7075.54
-7075.33
-7075.26
-7075.31
-7075.51
-7075.85
-7076.33
-7076.95
-7077.7
-7078.59
-7079.58
-7080.65
-7081.75
-7082.82
-7083.74
-7084.32
-7084.22
-7082.84
-7078.97
-7069.96
-7049.2
-6997.56
-6849.14
-6333.48
-1401.82
-2230.05
-2523.68
-2646.14
-2704.17
-2734.32
-2750.94
-2760.43
-2765.87
-2768.93
-2770.51
-2771.17
-2771.23
-2770.92
-2770.37
-2769.68
-2768.9
-2768.09
-2767.27
-2766.48
-2765.72
-2765.01
-2764.37
-2763.8
-2763.31
-2762.92
-2762.62
-2762.42
-2762.32
-2762.34
-2762.45
-2762.67
-2762.98
-2763.37
-2763.81
-2764.26
-2764.66
-2764.92
-2764.9
-2764.39
-2763.05
-2760.34
-2755.31
-2746.33
-2730.28
-2700.78
-2643.44
-2521.72
-2228.86
-1401.42
-2230.05
-3939.63
-4651.06
-4975.74
-5137.14
-5223.1
-5271.17
-5298.79
-5314.72
-5323.66
-5328.29
-5330.19
-5330.35
-5329.39
-5327.73
-5325.64
-5323.3
-5320.86
-5318.41
-5316.02
-5313.74
-5311.62
-5309.69
-5307.98
-5306.52
-5305.33
-5304.43
-5303.83
-5303.55
-5303.58
-5303.93
-5304.59
-5305.52
-5306.68
-5308
-5309.36
-5310.57
-5311.38
-5311.37
-5309.91
-5306.02
-5298.08
-5283.42
-5257.32
-5210.98
-5126.95
-4967.63
-4645.17
-3936.06
-2228.85
-2523.69
-4651.08
-5610.21
-6075.02
-6315.9
-6447.77
-6522.83
-6566.43
-6591.74
-6605.98
-6613.31
-6616.27
-6616.41
-6614.74
-6611.92
-6608.41
-6604.52
-6600.45
-6596.36
-6592.38
-6588.58
-6585.05
-6581.84
-6579
-6576.57
-6574.59
-6573.08
-6572.09
-6571.62
-6571.67
-6572.26
-6573.36
-6574.91
-6576.86
-6579.06
-6581.35
-6583.41
-6584.83
-6584.94
-6582.72
-6576.61
-6564.05
-6540.87
-6499.78
-6427.62
-6298.95
-6061.54
-5600.42
-4645.14
-2521.7
-2646.17
-4975.8
-6075.09
-6629.99
-6927.16
-7093.88
-7190.43
-7247.17
-7280.31
-7298.98
-7308.54
-7312.26
-7312.21
-7309.74
-7305.72
-7300.77
-7295.3
-7289.6
-7283.88
-7278.31
-7273.01
-7268.08
-7263.6
-7259.63
-7256.24
-7253.47
-7251.38
-7249.99
-7249.33
-7249.41
-7250.24
-7251.77
-7253.96
-7256.69
-7259.8
-7263.04
-7266.02
-7268.14
-7268.53
-7265.84
-7257.99
-7241.67
-7211.49
-7158.27
-7065.75
-6903.5
-6611.19
-6061.43
-4967.52
-2643.39
-2704.23
-5137.29
-6316.1
-6927.32
-7262.57
-7454.37
-7567.09
-7634
-7673.3
-7695.42
-7706.62
-7710.77
-7710.34
-7706.94
-7701.67
-7695.24
-7688.18
-7680.85
-7673.52
-7666.38
-7659.59
-7653.27
-7647.53
-7642.45
-7638.11
-7634.57
-7631.88
-7630.11
-7629.27
-7629.38
-7630.44
-7632.41
-7635.23
-7638.76
-7642.81
-7647.04
-7650.98
-7653.93
-7654.8
-7651.97
-7642.95
-7623.84
-7588.34
-7525.94
-7418.38
-7232.3
-6903.25
-6298.62
-5126.68
-2700.68
-2734.42
-5223.39
-6448.19
-7094.31
-7454.68
-7663.86
-7788.18
-7862.56
-7906.38
-7930.98
-7943.24
-7947.46
-7946.43
-7942
-7935.39
-7927.46
-7918.81
-7909.85
-7900.91
-7892.22
-7883.96
-7876.28
-7869.3
-7863.12
-7857.84
-7853.54
-7850.29
-7848.13
-7847.11
-7847.25
-7848.55
-7850.97
-7854.42
-7858.76
-7863.75
-7869.01
-7874
-7877.89
-7879.45
-7876.84
-7867.23
-7846.29
-7807.07
-7738.18
-7620.12
-7417.91
-7065.07
-6426.95
-5210.51
-2730.1
-2751.11
-5271.65
-6523.55
-7191.27
-7567.88
-7788.71
-7921.02
-8000.57
-8047.5
-8073.69
-8086.44
-8090.39
-8088.57
-8082.97
-8074.97
-8065.52
-8055.26
-8044.7
-8034.17
-8023.94
-8014.24
-8005.21
-7997.02
-7989.77
-7983.58
-7978.53
-7974.71
-7972.18
-7970.99
-7971.16
-7972.7
-7975.56
-7979.65
-7984.8
-7990.75
-7997.08
-8003.18
-8008.14
-8010.59
-8008.52
-7998.88
-7976.99
-7935.47
-7862.35
-7737.39
-7524.73
-7156.97
-6498.64
-5256.54
-2746.05
-2760.68
-5299.53
-6567.58
-7248.58
-7635.48
-7863.85
-8001.39
-8084.3
-8133.14
-8160.14
-8172.91
-8176.29
-8173.49
-8166.63
-8157.19
-8146.19
-8134.34
-8122.18
-8110.08
-8098.36
-8087.23
-8076.9
-8067.52
-8059.22
-8052.14
-8046.36
-8041.99
-8039.1
-8037.74
-8037.95
-8039.73
-8043.03
-8047.75
-8053.72
-8060.64
-8068.07
-8075.34
-8081.46
-8084.98
-8083.76
-8074.56
-8052.47
-8009.81
-7934.26
-7805.14
-7586.11
-7209.33
-6539.08
-5282.24
-2754.89
-2766.24
-5315.8
-6593.44
-7282.47
-7675.68
-7908.72
-8049.45
-8134.33
-8184.14
-8211.34
-8223.71
-8226.27
-8222.33
-8214.13
-8203.21
-8190.65
-8177.23
-8163.49
-8149.87
-8136.68
-8124.17
-8112.57
-8102.03
-8092.72
-8084.76
-8078.28
-8073.37
-8070.13
-8068.61
-8068.86
-8070.87
-8074.6
-8079.96
-8086.74
-8094.64
-8103.18
-8111.66
-8119.04
-8123.79
-8123.65
-8115.27
-8093.59
-8050.73
-7974.11
-7842.83
-7620.28
-7238.42
-6561.45
-5296.4
-2759.74
-2769.44
-5325.16
-6608.36
-7302.07
-7698.96
-7934.67
-8077.13
-8162.93
-8212.99
-8239.9
-8251.56
-8253.1
-8247.91
-8238.31
-8225.9
-8211.79
-8196.81
-8181.54
-8166.42
-8151.81
-8137.97
-8125.12
-8113.47
-8103.17
-8094.37
-8087.21
-8081.79
-8078.21
-8076.53
-8076.82
-8079.06
-8083.23
-8089.2
-8096.79
-8105.66
-8115.32
-8125.05
-8133.74
-8139.81
-8140.95
-8133.71
-8112.9
-8070.52
-7993.86
-7861.83
-7637.72
-7253.38
-6573
-5303.72
-2762.25
-2771.19
-5330.29
-6616.52
-7312.75
-7711.57
-7948.58
-8091.75
-8177.72
-8227.5
-8253.76
-8264.48
-8264.85
-8258.34
-8247.31
-8233.4
-8217.77
-8201.27
-8184.5
-8167.94
-8151.95
-8136.82
-8122.79
-8110.06
-8098.81
-8089.21
-8081.38
-8075.47
-8071.56
-8069.74
-8070.06
-8072.54
-8077.12
-8083.7
-8092.07
-8101.91
-8112.69
-8123.66
-8133.7
-8141.19
-8143.74
-8137.84
-8118.24
-8076.85
-8000.84
-7869.07
-7644.72
-7259.61
-6577.92
-5306.88
-2763.35
-2772.04
-5332.79
-6620.45
-7317.81
-7717.4
-7954.78
-8097.96
-8183.58
-8232.71
-8258.06
-8267.68
-8266.8
-8258.92
-8246.45
-8231.06
-8213.94
-8195.96
-8177.76
-8159.81
-8142.5
-8126.13
-8110.96
-8097.2
-8085.05
-8074.67
-8066.22
-8059.83
-8055.62
-8053.66
-8054.02
-8056.71
-8061.7
-8068.86
-8078.01
-8088.78
-8100.67
-8112.88
-8124.28
-8133.21
-8137.25
-8132.85
-8114.68
-8074.61
-7999.75
-7868.9
-7645.18
-7260.4
-6578.75
-5307.5
-2763.57
-2772.34
-5333.62
-6621.71
-7319.32
-7718.92
-7956.07
-8098.78
-8183.71
-8231.93
-8256.23
-8264.64
-8262.46
-8253.2
-8239.31
-8222.48
-8203.93
-8184.53
-8164.94
-8145.67
-8127.1
-8109.56
-8093.31
-8078.57
-8065.56
-8054.45
-8045.4
-8038.56
-8034.05
-8031.96
-8032.36
-8035.26
-8040.64
-8048.37
-8058.25
-8069.94
-8082.89
-8096.32
-8109.06
-8119.44
-8125.01
-8122.18
-8105.59
-8067.05
-7993.65
-7864.13
-7641.61
-7257.86
-6577.08
-5306.55
-2763.27
-2772.28
-5333.44
-6621.31
-7318.6
-7717.74
-7954.28
-8096.22
-8180.24
-8227.42
-8250.56
-8257.73
-8254.23
-8243.62
-8228.35
-8210.13
-8190.2
-8169.46
-8148.56
-8128.04
-8108.28
-8089.63
-8072.35
-8056.7
-8042.88
-8031.08
-8021.47
-8014.21
-8009.42
-8007.2
-8007.64
-8010.74
-8016.48
-8024.75
-8035.34
-8047.89
-8061.87
-8076.48
-8090.53
-8102.34
-8109.43
-8108.19
-8093.23
-8056.34
-7984.57
-7856.64
-7635.63
-7253.33
-6573.91
-5304.68
-2762.65
-2772.02
-5332.63
-6619.92
-7316.55
-7714.95
-7950.65
-8091.65
-8174.63
-8220.7
-8242.65
-8248.58
-8243.79
-8231.87
-8215.28
-8195.75
-8174.52
-8152.5
-8130.38
-8108.67
-8087.81
-8068.12
-8049.89
-8033.37
-8018.79
-8006.34
-7996.21
-7988.55
-7983.5
-7981.18
-7981.64
-7984.94
-7991.02
-7999.8
-8011.05
-8024.43
-8039.39
-8055.11
-8070.42
-8083.6
-8092.17
-8092.5
-8079.18
-8043.97
-7973.9
-7847.67
-7628.36
-7247.71
-6569.93
-5302.31
-2761.86
-2771.64
-5331.48
-6617.97
-7313.76
-7711.26
-7946.01
-8085.99
-8167.89
-8212.83
-8233.6
-8238.32
-8232.31
-8219.14
-8201.3
-8180.53
-8158.09
-8134.89
-8111.63
-8088.84
-8066.94
-8046.28
-8027.17
-8009.86
-7994.58
-7981.53
-7970.92
-7962.89
-7957.6
-7955.17
-7955.67