/*--------------------------------*- C++ -*----------------------------------*\
| =========                 |                                                 |
| \\      /  F ield         | OpenFOAM: The Open Source CFD Toolbox           |
|  \\    /   O peration     | Version:  5.x                                   |
|   \\  /    A nd           | Web:      www.OpenFOAM.org                      |
|    \\/     M anipulation  |                                                 |
\*---------------------------------------------------------------------------*/
FoamFile
{
    version     2.0;
    format      ascii;
    class       volScalarField;
    location    "1.2";
    object      gradTx;
}
// * * * * * * * * * * * * * * * * * * * * * * * * * * * * * * * * * * * * * //

dimensions      [0 -1 0 1 0 0 0];

internalField   nonuniform List<scalar> 
25000
(
5312.39
2589.7
1667.41
1259.84
1037.95
898.69
802.6
731.705
676.651
632.049
594.54
561.887
532.52
505.277
479.266
453.776
428.222
402.118
375.05
346.666
316.668
284.805
250.873
214.708
176.192
135.244
91.8248
45.9309
-2.405
-53.1194
-106.122
-161.302
-218.537
-277.707
-338.703
-401.458
-465.967
-532.336
-600.841
-672.025
-746.852
-826.967
-915.169
-1016.32
-1139.3
-1301.65
-1542.48
-1964.51
-2896.58
-5624.19
10907.3
6649.74
4698.9
3674.99
3068.16
2671.87
2393.05
2185.18
2022.74
1890.61
1779.17
1681.96
1594.4
1513.08
1435.36
1359.15
1282.71
1204.59
1123.56
1038.57
948.73
853.297
751.657
643.325
527.944
405.276
275.202
137.716
-7.08379
-159.005
-317.774
-483.058
-654.486
-831.687
-1014.34
-1202.21
-1395.29
-1593.85
-1798.69
-2011.35
-2234.61
-2473.16
-2734.93
-3033.47
-3392.86
-3858.35
-4521.91
-5589.18
-7569.32
-11841.6
14545.8
9773.98
7308.03
5887.12
4990.67
4381.81
3942.84
3610.44
3348
3132.98
2950.72
2791.11
2646.93
2512.71
2384.22
2258.04
2131.36
2001.78
1867.31
1726.2
1576.99
1418.45
1249.57
1069.56
877.812
673.947
457.771
229.276
-11.3679
-263.835
-527.662
-802.285
-1087.07
-1381.4
-1684.68
-1996.53
-2316.84
-2646.01
-2985.2
-3336.79
-3705
-4096.96
-4524.56
-5007.72
-5580.67
-6304.59
-7295.38
-8788.38
-11303.1
-16099.4
17255.5
12278.3
9547.8
7881.05
6779.54
6005.4
5433.55
4993
4640.86
4349.74
4101.27
3882.57
3684.19
3498.95
3321.17
3146.25
2970.36
2790.25
2603.17
2406.74
2198.93
1978.06
1742.72
1491.82
1224.54
940.344
638.979
320.443
-15.017
-366.933
-734.646
-1117.35
-1514.13
-1924.08
-2346.35
-2780.3
-3225.69
-3682.92
-4153.35
-4639.9
-5147.76
-5685.74
-6268.3
-6919.18
-7677.95
-8612.62
-9845.73
-11613.1
-14411.6
-19423
19444.7
14371.4
11496.3
9675.91
8431.85
7532.95
6854.35
6322.75
5892.36
5533.02
5223.95
4950.25
4700.78
4466.91
4241.78
4019.73
3796.03
3566.64
3328.1
3077.43
2812.09
2529.94
2229.22
1908.53
1566.87
1203.55
818.267
411.034
-17.8171
-467.665
-937.641
-1426.68
-1933.58
-2457.1
-2996.09
-3549.63
-4117.23
-4699.14
-5296.77
-5913.24
-6554.26
-7229.52
-7954.77
-8755.53
-9673.32
-10777.6
-12190.1
-14139.2
-17101.3
-22218.5
21302.5
16178
13218.1
11298.9
9955.35
8963.19
8200.23
7593.42
7096.06
6676.65
6313
5988.83
5691.77
5412.09
5141.9
4874.66
4604.85
4327.7
4039.12
3735.58
3414.04
3071.95
2707.2
2318.14
1903.55
1462.64
995.058
500.835
-19.5932
-565.445
-1135.63
-1728.8
-2343.45
-2977.98
-3630.89
-4300.9
-4987.21
-5689.79
-6409.88
-7150.52
-7917.51
-8720.77
-9576.41
-10510.3
-11563.8
-12805.6
-14353.8
-16429.4
-19494.9
-24672.7
22927.7
17773
14760.3
12775.3
11361.2
10299.2
9469.91
8801.59
8247.59
7775.95
7363.72
6993.78
6652.86
6330.4
6017.69
5707.45
5393.46
5070.32
4733.37
4378.56
4002.4
3601.97
3174.83
2719.08
2233.34
1716.69
1168.75
589.606
-20.2152
-659.751
-1327.67
-2022.35
-2741.92
-3484.43
-4247.97
-5030.83
-5831.83
-6650.54
-7487.85
-8346.5
-9232.03
-10154.1
-11128.5
-12180.6
-13350.9
-14705.8
-16360
-18528.5
-21665.3
-26882.4
24377.5
19203.6
16155.9
14125.5
12660.4
11545.6
10664.2
9945.75
9344.16
8827.46
8372.38
7961.27
7580.27
7218.17
6865.64
6514.76
6158.7
5791.55
5408.1
5003.84
4574.89
4117.95
3630.31
3109.84
2554.98
1964.76
1338.74
677.068
-19.6019
-750.127
-1512.93
-2306.06
-3127.32
-3974.34
-4844.77
-5736.45
-6647.69
-7577.62
-8526.61
-9496.91
-10493.6
-11525.6
-12608.3
-13765.8
-15037.4
-16487.4
-18227.3
-20467.7
-23657.2
-28902.5
25686.7
20499.9
17428.2
15365.4
13862.6
12707.4
11784.8
11025.5
10384.1
9828.68
9336
8888.1
8470.71
8072.14
7682.53
7293.48
6897.63
6488.58
6060.68
5608.99
5129.27
4617.89
4071.88
3488.9
2867.26
2205.89
1504.38
762.912
-17.7237
-836.188
-1690.64
-2578.82
-3498.14
-4445.81
-5419.01
-6415.09
-7431.81
-8467.74
-9522.67
-10598.2
-11698.8
-12832.7
-14014.1
-15266.2
-16626.8
-18158.2
-19969.4
-22267.9
-25498.8
-30765.9
26878.3
21682.3
18593.4
16506.9
14975.7
13789.2
12833.8
12041.1
11366.2
10777.7
10252.2
9771.6
9321.34
8889.37
8465.47
8040.75
7607.47
7158.77
6688.61
6191.68
5663.4
5099.85
4497.82
3854.79
3168.95
2439.16
1665.02
846.794
-14.6017
-917.618
-1860.15
-2839.6
-3853
-4897.11
-5968.64
-7064.37
-8181.53
-9318.06
-10473.1
-11647.5
-12845
-14073
-15344.8
-16682.3
-18121.9
-19724.2
-21596.3
-23943.4
-27208.4
-32493
27967.3
22764.7
19663.1
17558.7
16005.8
14794.8
13813
12992.9
12290
11673.2
11119.1
10609.5
10129.6
9667.27
9211.79
8753.95
8285.64
7799.63
7289.52
6749.68
6175.21
5561.94
4906.45
4206.06
3458.83
2663.62
1820
928.339
-10.3052
-994.173
-2020.88
-3087.51
-4190.67
-5326.71
-6491.79
-7682.19
-8894.52
-10126.1
-11375.3
-12642.4
-13930.1
-15245.1
-16599.6
-18014.5
-19524.8
-21189.8
-23114.9
-25503.7
-28797.6
-34097
28964.4
23756.8
20645.5
18527.5
16957.7
15727.2
14724.1
13881.4
13155.1
12514
11934.9
11399.7
10893.4
10403.5
9919.07
9430.64
8929.74
8408.82
7861.17
7280.86
6662.72
6002.36
5296.16
4541.29
3735.74
2878.32
1968.64
1007.15
-4.94721
-1065.67
-2172.35
-3321.74
-4510.07
-5733.21
-6986.84
-8266.66
-9568.68
-10889.6
-12227
-13580.6
-14952.1
-16347.4
-17777.7
-19263
-20837.1
-22558
-24529.9
-26955.1
-30274
-35586.2
29876.8
24665.5
21546.7
19418.1
17834.9
16588.9
15568.5
14707.1
13960.9
13299.1
12698.4
12140.6
11610.7
11095.9
10585.1
10068.6
9537.51
8984.13
8401.42
7783.2
7124.05
6419.37
5665.38
4859.12
3998.52
3082.34
2110.26
1082.79
1.32079
-1131.97
-2314.15
-3541.62
-4810.23
-6115.39
-7452.29
-8816.08
-10202.2
-11606.6
-13026.3
-14460.2
-15909.3
-17378.6
-18878.4
-20427.7
-22059.4
-23830.5
-25844.1
-28301.7
-31642.6
-36966
30709.9
25495.5
22371
20234
18640.2
17381.6
16347
15470.1
14707.2
14027.7
13408.3
12830.6
12279.7
11742.6
11207.9
10665.6
10106.9
9523.51
8908.29
8254.79
7557.39
6811.31
6012.61
5158.24
4246.04
3274.78
2244.18
1154.84
8.31616
-1193.01
-2445.94
-3746.54
-5090.27
-6472.13
-7886.81
-9328.92
-10793.3
-12275.3
-13771.4
-15279.5
-16800.1
-18337.2
-19900.6
-21508.2
-23192
-25008.3
-27059.3
-29545.7
-32906.2
-38239.5
31467.3
26250.6
23121.5
20977.9
19375.5
18106.7
17060.5
16170.6
15393.7
14699
14063.3
13468.4
12898.8
12341.7
11785.5
11220
10635.9
10025
9379.9
8693.84
7961.06
7176.61
6336.43
5437.36
4477.22
3454.75
2369.73
1222.86
15.8323
-1248.75
-2567.43
-3935.97
-5349.45
-6802.46
-8289.21
-9803.82
-11340.6
-12894.2
-14460.5
-16036.9
-17623
-19222.2
-20843.3
-22503.8
-24234.7
-26091.7
-28176.2
-30688.4
-34066.4
-39408.5
32151.6
26933.1
23800.4
21651.4
20042.1
18765
17709.2
16808.6
16019.9
15312.2
14662.6
14052.5
13466.6
12891.7
12316.2
11729.7
11122.8
10486.9
9814.51
9098.67
8333.47
7513.8
6635.48
5695.31
4691.03
3621.41
2486.26
1286.4
23.6462
-1299.19
-2678.4
-4109.45
-5587.08
-7105.47
-8658.42
-10239.5
-11842.6
-13461.8
-15092.3
-16730.8
-18376.5
-20031.9
-21705.4
-23413.6
-25187
-27080.5
-29195
-31730.2
-35123.8
-40473.8
32764.9
27544.9
24409.2
22256
20641.1
19357.2
18293.6
17384
16585.3
15866.7
15205
14581.8
13981.6
13391.1
12798.6
12193.4
11565.9
10907.6
10210.5
9467.72
8673.12
7821.47
6908.51
5930.94
4886.49
3773.95
2593.15
1345.02
31.5266
-1344.35
-2778.66
-4266.6
-5802.57
-7380.4
-8993.46
-10634.9
-12298.1
-13976.6
-15665.1
-17359.8
-19059.2
-20765.3
-22485.8
-24236.8
-26048.1
-27974.1
-30115.4
-32671
-36078.4
-41435.4
33308.2
28087.1
24949.1
22792.4
21173
19883.6
18813.5
17896.5
17089.5
16361.6
15689.7
15055.3
14442.7
13838.6
13231.1
12609.3
11963.7
11285.4
10566.4
9799.55
8978.65
8098.36
7154.33
6143.21
5062.71
3911.61
2689.81
1398.32
39.2414
-1384.28
-2868.07
-4407.07
-5995.4
-7626.53
-9293.47
-10989
-12705.9
-14437.5
-16177.9
-17922.6
-19669.8
-21421
-23183.2
-24972.1
-26817
-28771.8
-30936.7
-33510.3
-36929.9
-42293
33782.6
28560.5
25420.7
23261.3
21638.3
20344.4
19269
18345.9
17532
16796.4
16115.9
15471.9
14848.7
14232.9
13612.4
12976.3
12314.9
11619.1
10880.8
10092.9
9248.83
8343.31
7371.89
6331.17
5218.83
4033.69
2775.69
1445.91
46.5643
-1419.02
-2946.5
-4530.58
-6165.1
-7843.25
-9557.69
-11300.8
-13065.1
-14843.4
-16629.3
-18418
-20207.2
-21997.8
-23796.5
-25618.5
-27492.7
-29472.6
-31658
-34247.3
-37677.5
-43045.9
34188.7
28965.8
25824.6
23662.9
22037.1
20739.6
19659.9
18731.9
17912.3
17170.3
16482.7
15830.7
15198.7
14573
13941.5
13293.2
12618.2
11907.4
11152.7
10346.5
9482.54
8555.28
7560.22
6493.94
5354.12
4139.57
2850.28
1487.41
53.2825
-1448.65
-3013.87
-4636.88
-6311.28
-8030.01
-9785.43
-11569.6
-13374.7
-15193.2
-17018.3
-18844.8
-20670
-22494.6
-24324.6
-26174.9
-28074.2
-30075.6
-32278.5
-34881.2
-38320.4
-43693.4
34526.7
29303.3
26160.9
23997.5
22369.4
21069.1
19986.1
19054.1
18230
17482.9
16789.5
16131
15491.7
14857.8
14217.2
13558.8
12872.6
12149.4
11380.8
10559.5
9678.82
8733.34
7718.48
6630.78
5467.9
4228.69
2913.15
1522.52
59.2016
-1473.23
-3070.11
-4725.76
-6433.62
-8186.36
-9976.12
-11794.7
-13634
-15486
-17343.9
-19202.1
-21057.4
-22910.2
-24766.4
-26640.3
-28560.5
-30579.8
-32797.3
-35411.1
-38857.8
-44234.6
34797
29573.2
26429.9
24265.2
22635.4
21333
20247.3
19312.4
18484.7
17733.6
17035.7
16372.1
15727
15086.7
14438.9
13772.4
13077.2
12344
11564.4
10730.9
9836.85
8876.74
7845.97
6741.04
5559.63
4300.57
2963.92
1550.95
64.1517
-1492.81
-3115.16
-4797.07
-6531.82
-8311.9
-10129.3
-11975.5
-13842.2
-15721.3
-17605.5
-19489
-21368.4
-23243.9
-25121
-27013.9
-28950.8
-30984.3
-33213.4
-35836.2
-39288.9
-44668.7
34999.7
29775.5
26631.6
24466
22835
21531
20443.4
19506.3
18676.1
17922
17220.7
16553.4
15904
15258.9
14605.7
13933.3
13231.3
12490.6
11702.7
10860
9955.96
8984.85
7942.1
6824.2
5628.83
4354.82
3002.27
1572.48
67.9912
-1507.45
-3148.98
-4850.67
-6605.66
-8406.34
-10244.5
-12111.5
-13998.9
-15898.2
-17802.2
-19704.8
-21602.4
-23494.8
-25387.6
-27294.7
-29244.1
-31288.4
-33526.3
-36155.6
-39612.9
-44994.9
35134.7
29910.4
26766.1
24599.9
22968
21663
20574.3
19635.7
18803.8
18047.8
17344.3
16674.5
16022.3
15374
14717.2
14040.8
13334.4
12588.7
11795.2
10946.5
10035.7
9057.19
8006.43
6879.87
5675.16
4391.16
3027.97
1586.92
70.6108
-1517.19
-3171.54
-4886.45
-6654.99
-8469.43
-10321.4
-12202.4
-14103.5
-16016.5
-17933.7
-19849
-21758.6
-23662.4
-25565.7
-27482.3
-29440.1
-31491.4
-33735.2
-36369
-39829.2
-45212.7
35202.3
29977.8
26833.3
24666.9
23034.6
21729.1
20639.7
19700.4
18867.7
18110.8
17406.2
16735.1
16081.5
15431.6
14773.1
14094.6
13386
12637.8
11841.6
10989.7
10075.6
9093.44
8038.67
6907.77
5698.38
4409.38
3040.86
1594.18
71.9363
-1522.05
-3182.83
-4904.37
-6679.69
-8501.02
-10360
-12247.9
-14155.9
-16075.7
-17999.5
-19921.1
-21836.9
-23746.4
-25654.8
-27576.2
-29538.1
-31593.1
-33839.7
-36475.7
-39937.4
-45321.7
35202.3
29977.8
26833.3
24666.9
23034.6
21729.1
20639.7
19700.4
18867.7
18110.8
17406.2
16735.1
16081.5
15431.7
14773.1
14094.6
13386
12637.8
11841.6
10989.8
10075.6
9093.44
8038.67
6907.77
5698.38
4409.37
3040.85
1594.17
71.9299
-1522.06
-3182.84
-4904.38
-6679.7
-8501.03
-10360
-12247.9
-14155.9
-16075.7
-17999.5
-19921.2
-21836.9
-23746.4
-25654.9
-27576.2
-29538.1
-31593.1
-33839.7
-36475.7
-39937.4
-45321.7
35134.8
29910.4
26766.1
24599.9
22968
21663.1
20574.3
19635.7
18803.8
18047.8
17344.4
16674.5
16022.3
15374
14717.3
14040.8
13334.4
12588.7
11795.3
10946.5
10035.7
9057.2
8006.43
6879.87
5675.16
4391.15
3027.96
1586.91
70.5919
-1517.21
-3171.57
-4886.48
-6655.02
-8469.46
-10321.5
-12202.4
-14103.6
-16016.5
-17933.7
-19849
-21758.7
-23662.5
-25565.7
-27482.3
-29440.1
-31491.4
-33735.1
-36368.9
-39829.1
-45212.7
34999.7
29775.5
26631.6
24466.1
22835
21531
20443.5
19506.3
18676.1
17922.1
17220.8
16553.4
15904
15258.9
14605.8
13933.3
13231.4
12490.7
11702.7
10860.1
9955.98
8984.86
7942.1
6824.2
5628.82
4354.81
3002.25
1572.45
67.9599
-1507.49
-3149.02
-4850.71
-6605.72
-8406.39
-10244.5
-12111.6
-13998.9
-15898.3
-17802.3
-19704.9
-21602.4
-23494.9
-25387.6
-27294.7
-29244.1
-31288.3
-33526.2
-36155.6
-39612.8
-44994.8
34797.1
29573.2
26429.9
24265.3
22635.4
21333
20247.4
19312.4
18484.8
17733.7
17035.7
16372.1
15727
15086.7
14438.9
13772.5
13077.3
12344.1
11564.4
10730.9
9836.87
8876.76
7845.98
6741.04
5559.62
4300.55
2963.89
1550.91
64.1085
-1492.86
-3115.22
-4797.14
-6531.89
-8311.98
-10129.3
-11975.6
-13842.3
-15721.4
-17605.6
-19489.1
-21368.5
-23243.9
-25121
-27013.9
-28950.8
-30984.3
-33213.4
-35836.1
-39288.8
-44668.6
34526.8
29303.4
26161
23997.6
22369.5
21069.2
19986.1
19054.2
18230.1
17483
16789.6
16131.1
15491.7
14857.9
14217.3
13558.9
12872.7
12149.4
11380.8
10559.5
9678.85
8733.36
7718.49
6630.78
5467.9
4228.67
2913.12
1522.47
59.1471
-1473.29
-3070.18
-4725.85
-6433.71
-8186.46
-9976.22
-11794.8
-13634.1
-15486.2
-17344
-19202.2
-21057.5
-22910.3
-24766.4
-26640.4
-28560.6
-30579.8
-32797.2
-35411
-38857.7
-44234.5
34188.7
28965.9
25824.6
23663
22037.1
20739.7
19660
18732
17912.4
17170.4
16482.8
15830.8
15198.8
14573
13941.5
13293.3
12618.3
11907.5
11152.7
10346.6
9482.58
8555.3
7560.23
6493.94
5354.11
4139.55
2850.24
1487.36
53.2172
-1448.73
-3013.96
-4636.98
-6311.4
-8030.13
-9785.56
-11569.8
-13374.9
-15193.3
-17018.4
-18845
-20670.1
-22494.6
-24324.7
-26175
-28074.2
-30075.6
-32278.5
-34881.1
-38320.3
-43693.3
33782.7
28560.6
25420.8
23261.3
21638.4
20344.5
19269.1
18346
17532.1
16796.5
16116
15472
14848.8
14233
13612.5
12976.4
12315
11619.2
10880.9
10092.9
9248.87
8343.34
7371.91
6331.17
5218.82
4033.66
2775.64
1445.85
46.4892
-1419.11
-2946.61
-4530.69
-6165.23
-7843.39
-9557.84
-11301
-13065.3
-14843.5
-16629.4
-18418.2
-20207.3
-21997.9
-23796.6
-25618.6
-27492.7
-29472.6
-31658
-34247.2
-37677.4
-43045.8
33308.3
28087.1
24949.2
22792.5
21173.1
19883.7
18813.6
17896.6
17089.6
16361.7
15689.8
15055.4
14442.8
13838.7
13231.2
12609.4
11963.8
11285.5
10566.5
9799.61
8978.7
8098.4
7154.35
6143.22
5062.69
3911.58
2689.76
1398.26
39.1573
-1384.38
-2868.19
-4407.2
-5995.54
-7626.69
-9293.64
-10989.2
-12706.1
-14437.7
-16178
-17922.8
-19670
-21421.2
-23183.3
-24972.1
-26817
-28771.8
-30936.6
-33510.2
-36929.8
-42292.8
32764.9
27544.9
24409.3
22256.1
20641.2
19357.3
18293.7
17384.1
16585.4
15866.8
15205.1
14581.9
13981.7
13391.3
12798.7
12193.5
11566
10907.7
10210.6
9467.79
8673.17
7821.51
6908.53
5930.94
4886.48
3773.92
2593.1
1344.95
31.4346
-1344.46
-2778.79
-4266.74
-5802.73
-7380.57
-8993.64
-10635.1
-12298.3
-13976.8
-15665.3
-17360
-19059.4
-20765.5
-22485.9
-24236.8
-26048.1
-27974.1
-30115.3
-32670.9
-36078.3
-41435.2
32151.7
26933.2
23800.5
21651.5
20042.2
18765.1
17709.3
16808.7
16020
15312.3
14662.7
14052.6
13466.7
12891.8
12316.4
11729.8
11122.9
10487
9814.6
9098.75
8333.53
7513.84
6635.51
5695.31
4691.01
3621.38
2486.21
1286.32
23.5474
-1299.31
-2678.54
-4109.61
-5587.26
-7105.66
-8658.61
-10239.7
-11842.8
-13462
-15092.5
-16731
-18376.6
-20032.1
-21705.6
-23413.7
-25187.1
-27080.5
-29195
-31730.1
-35123.6
-40473.6
31467.4
26250.7
23121.6
20978
19375.6
18106.8
17060.6
16170.7
15393.8
14699.1
14063.5
13468.5
12899
12341.8
11785.6
11220.1
10636
10025.2
9380
8693.93
7961.13
7176.66
6336.46
5437.37
4477.2
3454.72
2369.67
1222.78
15.728
-1248.88
-2567.58
-3936.13
-5349.64
-6802.66
-8289.42
-9804.04
-11340.8
-12894.4
-14460.8
-16037.1
-17623.1
-19222.3
-20843.4
-22503.8
-24234.8
-26091.7
-28176.1
-30688.2
-34066.2
-39408.3
30710
25495.6
22371.1
20234.1
18640.3
17381.7
16347.1
15470.2
14707.4
14027.8
13408.4
12830.8
12279.9
11742.7
11208
10665.8
10107
9523.63
8908.39
8254.88
7557.46
6811.36
6012.64
5158.25
4246.02
3274.75
2244.12
1154.76
8.20774
-1193.15
-2446.09
-3746.72
-5090.47
-6472.34
-7887.03
-9329.16
-10793.5
-12275.6
-13771.6
-15279.7
-16800.3
-18337.4
-19900.7
-21508.3
-23192.1
-25008.3
-27059.2
-29545.5
-32906
-38239.3
29876.9
24665.6
21546.8
19418.2
17835
16589
15568.6
14707.2
13961
13299.2
12698.6
12140.8
11610.9
11096
10585.2
10068.7
9537.64
8984.25
8401.53
7783.29
7124.12
6419.43
5665.41
4859.14
3998.51
3082.31
2110.2
1082.71
1.20965
-1132.11
-2314.31
-3541.81
-4810.43
-6115.61
-7452.52
-8816.32
-10202.4
-11606.8
-13026.6
-14460.4
-15909.5
-17378.7
-18878.5
-20427.8
-22059.4
-23830.4
-25844
-28301.5
-31642.4
-36965.8
28964.5
23756.9
20645.6
18527.6
16957.8
15727.3
14724.3
13881.6
13155.2
12514.1
11935.1
11399.9
10893.6
10403.6
9919.22
9430.78
8929.87
8408.94
7861.28
7280.95
6662.8
6002.42
5296.2
4541.31
3735.74
2878.29
1968.58
1007.06
-5.05954
-1065.8
-2172.52
-3321.93
-4510.28
-5733.44
-6987.08
-8266.91
-9568.94
-10889.8
-12227.3
-13580.8
-14952.3
-16347.6
-17777.9
-19263.1
-20837.1
-22558
-24529.8
-26955
-30273.8
-35586
27967.4
22764.9
19663.2
17558.8
16005.9
14794.9
13813.1
12993
12290.2
11673.3
11119.2
10609.6
10129.8
9667.43
9211.94
8754.1
8285.78
7799.76
7289.64
6749.78
6175.29
5562.01
4906.49
4206.08
3458.83
2663.59
1819.95
928.254
-10.4171
-994.311
-2021.05
-3087.69
-4190.88
-5326.94
-6492.04
-7682.45
-8894.78
-10126.3
-11375.5
-12642.6
-13930.3
-15245.3
-16599.8
-18014.6
-19524.9
-21189.8
-23114.8
-25503.6
-28797.3
-34096.7
26878.4
21682.4
18593.5
16507
14975.8
13789.3
12833.9
12041.2
11366.4
10777.9
10252.4
9771.75
9321.49
8889.53
8465.62
8040.9
7607.61
7158.9
6688.73
6191.79
5663.49
5099.92
4497.87
3854.82
3168.94
2439.13
1664.97
846.712
-14.7115
-917.755
-1860.31
-2839.79
-3853.21
-4897.34
-5968.88
-7064.63
-8181.8
-9318.32
-10473.3
-11647.8
-12845.3
-14073.2
-15344.9
-16682.4
-18122
-19724.2
-21596.2
-23943.2
-27208.1
-32492.8
25686.8
20500
17428.3
15365.5
13862.7
12707.5
11784.9
11025.6
10384.2
9828.82
9336.15
8888.26
8470.87
8072.29
7682.69
7293.62
6897.77
6488.71
6060.8
5609.1
5129.36
4617.96
4071.93
3488.93
2867.26
2205.87
1504.33
762.834
-17.8295
-836.32
-1690.8
-2579
-3498.34
-4446.04
-5419.25
-6415.34
-7432.07
-8468.01
-9522.93
-10598.5
-11699
-12832.9
-14014.2
-15266.4
-16626.9
-18158.2
-19969.3
-22267.7
-25498.6
-30765.6
24377.5
19203.7
16156
14125.6
12660.5
11545.7
10664.3
9945.88
9344.3
8827.6
8372.52
7961.42
7580.42
7218.32
6865.79
6514.9
6158.85
5791.68
5408.22
5003.95
4574.98
4118.02
3630.36
3109.87
2554.99
1964.74
1338.69
676.995
-19.7017
-750.253
-1513.08
-2306.24
-3127.52
-3974.56
-4845
-5736.7
-6647.95
-7577.88
-8526.86
-9497.16
-10493.8
-11525.9
-12608.5
-13766
-15037.5
-16487.4
-18227.2
-20467.5
-23657
-28902.3
22927.8
17773.1
14760.4
12775.4
11361.3
10299.3
9470.03
8801.71
8247.72
7776.08
7363.86
6993.92
6653.01
6330.54
6017.84
5707.6
5393.59
5070.45
4733.49
4378.66
4002.49
3602.04
3174.88
2719.12
2233.34
1716.68
1168.71
589.54
-20.307
-659.868
-1327.82
-2022.51
-2742.11
-3484.64
-4248.19
-5031.07
-5832.07
-6650.79
-7488.1
-8346.74
-9232.25
-10154.3
-11128.7
-12180.7
-13350.9
-14705.8
-16360
-18528.4
-21665.1
-26882.2
21302.5
16178
13218.2
11299
9955.44
8963.29
8200.33
7593.53
7096.18
6676.77
6313.13
5988.97
5691.91
5412.23
5142.04
4874.8
4604.97
4327.82
4039.23
3735.68
3414.12
3072.02
2707.25
2318.17
1903.56
1462.63
995.024
500.778
-19.6751
-565.551
-1135.76
-1728.95
-2343.62
-2978.17
-3631.1
-4301.12
-4987.43
-5690.02
-6410.11
-7150.74
-7917.72
-8720.96
-9576.57
-10510.4
-11563.9
-12805.6
-14353.8
-16429.3
-19494.7
-24672.5
19444.8
14371.5
11496.4
9675.98
8431.93
7533.04
6854.44
6322.85
5892.47
5533.13
5224.07
4950.37
4700.9
4467.04
4241.9
4019.85
3796.15
3566.75
3328.2
3077.52
2812.17
2530.01
2229.27
1908.57
1566.88
1203.54
818.24
410.985
-17.887
-467.756
-937.753
-1426.81
-1933.73
-2457.27
-2996.27
-3549.82
-4117.43
-4699.35
-5296.98
-5913.44
-6554.45
-7229.69
-7954.92
-8755.64
-9673.39
-10777.7
-12190.1
-14139.1
-17101.2
-22218.3
17255.6
12278.4
9547.86
7881.11
6779.61
6005.47
5433.62
4993.08
4640.94
4349.83
4101.37
3882.67
3684.3
3499.05
3321.27
3146.35
2970.46
2790.35
2603.26
2406.82
2199
1978.12
1742.77
1491.85
1224.55
940.341
638.959
320.405
-15.0733
-367.008
-734.738
-1117.46
-1514.26
-1924.22
-2346.5
-2780.46
-3225.86
-3683.09
-4153.53
-4640.07
-5147.92
-5685.89
-6268.43
-6919.28
-7678.01
-8612.63
-9845.69
-11613
-14411.4
-19422.8
14545.8
9774.03
7308.07
5887.17
4990.72
4381.86
3942.9
3610.5
3348.06
3133.05
2950.79
2791.19
2647
2512.79
2384.3
2258.12
2131.43
2001.85
1867.37
1726.25
1577.04
1418.49
1249.61
1069.58
877.822
673.945
457.756
229.248
-11.4099
-263.89
-527.73
-802.366
-1087.17
-1381.5
-1684.8
-1996.65
-2316.97
-2646.14
-2985.33
-3336.92
-3705.12
-4097.07
-4524.65
-5007.8
-5580.71
-6304.6
-7295.35
-8788.32
-11303
-16099.3
10907.3
6649.77
4698.93
3675.02
3068.19
2671.9
2393.09
2185.21
2022.78
1890.65
1779.21
1682.01
1594.45
1513.13
1435.41
1359.2
1282.75
1204.63
1123.59
1038.6
948.76
853.322
751.676
643.338
527.949
405.274
275.192
137.698
-7.11043
-159.04
-317.817
-483.108
-654.543
-831.751
-1014.4
-1202.28
-1395.36
-1593.93
-1798.77
-2011.43
-2234.68
-2473.23
-2734.98
-3033.51
-3392.88
-3858.35
-4521.89
-5589.15
-7569.26
-11841.6
5312.4
2589.71
1667.42
1259.85
1037.96
898.701
802.612
731.718
676.664
632.063
594.554
561.902
532.535
505.292
479.281
453.791
428.237
402.132
375.062
346.677
316.677
284.813
250.878
214.712
176.193
135.243
91.8206
45.9241
-2.41453
-53.1316
-106.137
-161.319
-218.557
-277.728
-338.727
-401.482
-465.993
-532.362
-600.867
-672.051
-746.876
-826.988
-915.187
-1016.33
-1139.31
-1301.65
-1542.47
-1964.5
-2896.56
-5624.17
2596.35
1916.11
1460.67
1182.07
1003.57
881.747
793.733
726.996
674.25
630.998
594.306
562.157
533.102
506.048
480.146
454.71
429.174
403.059
375.96
347.53
317.472
285.539
251.527
215.275
176.663
135.612
92.0836
46.0755
-2.37885
-53.2141
-106.338
-161.636
-218.984
-278.253
-339.328
-402.128
-466.632
-532.917
-601.216
-672
-746.11
-824.97
-910.953
-1008.03
-1123
-1267.98
-1465.47
-1758.57
-2223.82
-2909
6668.85
5297.93
4207.41
3470.66
2972.9
2623.64
2367.47
2171.5
2015.76
1887.57
1778.53
1682.81
1596.17
1515.4
1438.01
1361.96
1285.56
1207.41
1126.29
1041.16
951.143
855.5
753.621
645.026
529.357
406.381
275.981
138.152
-7.00315
-159.287
-318.42
-484.06
-655.824
-833.325
-1016.21
-1204.23
-1397.29
-1595.61
-1799.85
-2011.34
-2232.5
-2467.39
-2722.73
-3009.61
-3346.58
-3765.22
-4319.86
-5100.1
-6219.99
-7605.7
9804.32
8115.89
6652.5
5596.38
4848.98
4308.03
3903.05
3588.98
3337.03
3128.28
2949.84
2792.63
2649.92
2516.61
2388.64
2262.72
2136.11
2006.48
1871.85
1730.51
1581
1422.12
1252.84
1072.39
880.162
675.785
459.065
230.001
-11.2338
-264.304
-528.737
-803.953
-1089.3
-1384.13
-1687.82
-1999.91
-2320.21
-2649
-2987.24
-3336.96
-3701.83
-4088.01
-4505.57
-4970.8
-5510.12
-6166.45
-7008.44
-8136.86
-9649.09
-11362.1
12318.8
10477.7
8801.49
7535.45
6605.29
5912.44
5382.63
4965.34
4626.75
4343.82
4100.42
3884.9
3688.5
3504.47
3327.38
3152.81
2977.01
2796.82
2609.51
2412.75
2204.54
1983.17
1747.28
1495.76
1227.82
942.909
640.785
321.454
-14.8302
-367.589
-736.148
-1119.68
-1517.25
-1927.91
-2350.74
-2785.05
-3230.47
-3687.22
-4156.41
-4640.5
-5144
-5674.46
-6244.09
-6872.27
-7589.5
-8443.31
-9505.44
-10872.3
-12616.7
-14492.1
14421.1
12500.3
10699.4
9296.5
8235.86
7426.45
6795.31
6290.53
5876.03
5526.41
5223.42
4953.55
4706.48
4474.09
4249.8
4028.17
3804.57
3575.06
3336.23
3085.13
2819.26
2536.48
2235.05
1913.58
1571.06
1206.83
820.579
412.327
-17.5791
-468.507
-939.568
-1429.67
-1937.58
-2462.02
-3001.76
-3555.78
-4123.46
-4704.85
-5301.01
-5914.57
-6550.41
-7216.79
-7926.96
-8701.62
-9572.6
-10588
-11817.5
-13349.5
-15237.6
-17202.3
16235.9
14269.9
12392.7
10899
9745.36
8847.62
8135.65
7558.14
7078.37
6669.86
6313.09
5993.28
5698.98
5420.97
5151.75
4884.97
4615.25
4337.94
4049.01
3744.94
3422.75
3079.9
2714.29
2324.27
1908.65
1466.63
997.866
502.407
-19.3054
-566.471
-1137.98
-1732.45
-2348.34
-2984
-3637.84
-4308.48
-4994.94
-5696.99
-6415.46
-7152.86
-7914.08
-8707.47
-9546.48
-10451.9
-11455.3
-12603.3
-13962.1
-15612.6
-17595.8
-19615.2
17838.7
15844.8
13918.5
12363
11142.5
10177.8
9401.86
8764.52
8229.33
7769.45
7364.71
6999.54
6661.64
6341.02
6029.37
5719.62
5405.71
5082.37
4744.98
4389.56
4012.64
3611.3
3183.15
2726.28
2239.32
1721.37
1172.05
591.449
-19.8791
-660.959
-1330.44
-2026.64
-2747.68
-3491.54
-4256.19
-5039.85
-5841.11
-6659.32
-7494.95
-8350.14
-9229.47
-10141
-11097.7
-12119.9
-13237.8
-14496.1
-15957.4
-17697
-19747.6
-21804
19276.2
17264.3
15304.9
13706.1
12436.6
11420.9
10594.2
9907.89
9325.97
8821.66
8374.5
7968.47
7590.69
7230.56
6879.14
6528.77
6172.78
5805.36
5421.4
5016.43
4586.6
4128.63
3639.83
3118.08
2561.83
1970.11
1342.51
679.177
-19.2193
-751.513
-1516.1
-2311
-3133.95
-3982.53
-4854.27
-5746.91
-6658.55
-7588.04
-8535.34
-9502.07
-10492.3
-11513.3
-12577.6
-13704.2
-14922.2
-16273.9
-17818.9
-19628.3
-21729.9
-23813.5
20578.9
18554.6
16572.1
14942.1
13636.1
12581
11714.1
10987.6
10366.4
9823.88
9339.45
8896.85
8482.83
8086.31
7697.85
7309.3
6913.49
6504.12
6075.63
5623.14
5142.42
4629.88
4082.57
3498.15
2874.94
2211.9
1508.61
765.278
-17.2961
-837.748
-1694.21
-2584.38
-3505.61
-4455.05
-5429.78
-6426.98
-7444.25
-8479.85
-9533.13
-10605.1
-11699
-12821.6
-13984.3
-15204.9
-16511
-17943.2
-19558.5
-21424.8
-23567
-25671.7
21767.1
19733.9
17734.7
16081.6
14747.9
13662.3
12763.1
12003.7
11349.5
10774.2
10257.1
9781.96
9335.16
8905.31
8482.57
8058.35
7625.07
7175.99
6705.16
6207.33
5677.94
5113.1
4509.63
3865.01
3177.44
2445.81
1669.7
849.409
-14.1307
-919.348
-1864.1
-2845.76
-3861.3
-4907.39
-5980.64
-7077.7
-8195.56
-9331.88
-10485.3
-11656.2
-12847
-14063.6
-15316.3
-16622
-18006.7
-19509.3
-21184.8
-23099.2
-25274.9
-27396.9
22854.7
20815.1
18803.4
17132.9
15777.9
14668.1
13742.9
12956.5
12274.5
11671
11125.5
10621.5
10145.2
9684.96
9230.64
8773.27
8304.92
7818.47
7307.61
6766.77
6191.08
5576.41
4919.34
4217.21
3468.11
2670.87
1825.11
931.194
-9.79221
-996.066
-2025.21
-3094.26
-4199.77
-5338
-6505.01
-7696.92
-8910.11
-10141.6
-11389.4
-12652.9
-13934
-15237.6
-16572.9
-17955.8
-19410.9
-20975.9
-22704.1
-24659.9
-26864.2
-29000.9
23851.5
21807
19785.9
18101.9
16730.2
15601.3
14655
13846.2
13140.9
12513.3
11943
11413.4
10910.6
10422.9
9939.61
9451.62
8950.62
8429.2
7880.73
7299.33
6679.87
6017.99
5310.09
4553.34
3745.76
2886.15
1974.16
1010.23
-4.39388
-1067.72
-2177.04
-3329.06
-4519.94
-5745.47
-7001.22
-8282.74
-9585.81
-10906.8
-12242.9
-13593
-14958
-16341.9
-17753
-19206.1
-20724.9
-22345.6
-24120.5
-26112.6
-28341.8
-30491.2
24764.4
22716.2
20687.8
18993.3
17608.3
16464
15500.6
14673.2
13948.2
13299.9
12708
12155.9
11629.6
11116.9
10607.3
10091.1
9559.93
9005.99
8422.39
7802.98
7142.41
6436.11
5680.29
4872.02
4009.24
3090.73
2116.17
1086.1
1.91296
-1134.17
-2319.18
-3549.47
-4820.82
-6128.58
-7467.79
-8833.46
-10220.8
-11625.4
-13044
-14474.5
-15917.2
-17375
-18855.7
-20372.9
-21949.3
-23620.1
-25436.6
-27460.9
-29712.2
-31872.7
25598.4
23547.1
21513
19810.2
18414.8
17257.9
16280.4
15437.6
14696
14030
13419.4
12847.5
12300.2
11765.1
11231.6
10689.7
10130.8
9546.77
8930.57
8275.81
7576.9
6829.09
6028.44
5171.94
4257.42
3283.69
2250.45
1158.35
8.94553
-1195.35
-2451.29
-3754.89
-5101.56
-6486.2
-7903.38
-9347.55
-10813.3
-12295.8
-13790.8
-15295.7
-16809.9
-18335.8
-19880
-21455.5
-23084
-24800
-26653.9
-28707
-30977.8
-33148.3
26356.8
24303.3
22264.6
20555.2
19151.3
17984.3
16995.2
16139.5
15383.9
14702.8
14076
13486.7
12920.8
12365.8
11810.6
11245.4
10661.1
10049.6
9403.42
8716.02
7981.64
7195.36
6353.13
5451.81
4489.23
3464.15
2376.35
1226.56
16.4971
-1251.22
-2573.08
-3944.79
-5361.39
-6817.35
-8306.78
-9823.62
-11361.9
-12916.1
-14481.6
-16054.8
-17634.7
-19222.7
-20824.8
-22453.2
-24128.9
-25885.6
-27773
-29851.9
-32140.2
-34319.5
27042.4
24987
22944.7
21230
19819.2
18643.9
17645.3
16778.9
16011.4
15317.4
14676.6
14072.2
13489.9
12917.2
12342.7
11756.5
11149.3
10512.7
9839.17
9121.92
8355.03
7533.44
6652.98
5710.45
4703.61
3631.26
2493.2
1290.28
24.3445
-1301.77
-2684.32
-4118.71
-5599.62
-7121.13
-8676.91
-10260.4
-11865.2
-13485.1
-15114.8
-16750.4
-18389.9
-20034.3
-21688.9
-23365.1
-25083.3
-26876.6
-28794
-30895.9
-33199.8
-35386.9
27656.8
25599.9
23554.7
21835.8
20419.4
19237.4
18230.9
17355.5
16578.1
15873.2
15220.4
14602.9
14006.2
13417.8
12826.3
12221.3
11593.6
10934.4
10236.2
9491.94
8695.59
7841.93
6926.73
5946.71
4899.6
3784.21
2600.39
1349.07
32.2563
-1347.04
-2784.84
-4276.26
-5815.66
-7396.75
-9012.8
-10656.8
-12321.8
-14001.2
-15689.1
-17381
-19074.3
-20769.5
-22471.1
-24190.1
-25946.3
-27772.2
-29716.4
-31838.8
-34156.6
-36350.7
28201.2
26143.3
24095.7
22373.4
20952.5
19765
18752
17869.2
17083.5
16369.3
15706.3
15077.5
14468.5
13866.4
13259.9
12638.4
11992.4
11313.3
10593
9824.65
9001.93
8119.57
7173.22
6159.55
5076.29
3922.24
2697.31
1402.52
39.9998
-1387.06
-2874.47
-4417.09
-6008.98
-7643.52
-9313.58
-11011.8
-12730.7
-14463.3
-16203.1
-17945.2
-19686.5
-21426.8
-23170.2
-24927.2
-26717.1
-28571.8
-30539.6
-32680.1
-35010
-37210.2
28676.7
26617.8
24568.4
22843.3
21418.8
20226.8
19208.6
18319.7
17527.1
16805.1
16133.5
15495.2
14875.5
14261.8
13642.2
13006.4
12344.5
11647.8
10908.3
10118.7
9272.83
8365.17
7391.35
6348.01
5232.84
4044.65
2783.42
1450.23
47.3489
-1421.89
-2953.1
-4540.91
-6179.12
-7860.79
-9578.48
-11324.4
-13090.8
-14870.1
-16655.7
-18441.8
-20225.1
-22005
-23785
-25575.2
-27394.4
-29274.3
-31262.7
-33418.8
-35759.4
-37965
29083.7
27024
24973.2
23245.9
21818.5
20623
19600.4
18706.6
17908.4
17180
16501.2
15854.9
15226.4
14602.7
13972.1
13324
12648.6
11936.9
11180.9
10373.1
9507.17
8577.7
7580.19
6511.22
5368.49
4150.82
2858.21
1491.86
54.0901
-1451.6
-3020.64
-4647.49
-6325.68
-8048.04
-9806.81
-11593.9
-13401.2
-15220.9
-17045.7
-18869.7
-20689.2
-22503
-24314.4
-26133
-27977.4
-29878.7
-31884.7
-34054.3
-36403.9
-38614
29422.5
27362.3
25310.3
23581.3
22151.7
20953.3
19927.4
19029.7
18226.9
17493.4
16808.8
16156
15520.1
14888.3
14248.6
13590.4
12903.7
12179.5
11409.6
10586.6
9703.97
8756.24
7738.88
6648.43
5482.58
4240.18
2921.25
1527.06