/*--------------------------------*- C++ -*----------------------------------*\
| =========                 |                                                 |
| \\      /  F ield         | OpenFOAM: The Open Source CFD Toolbox           |
|  \\    /   O peration     | Version:  5.x                                   |
|   \\  /    A nd           | Web:      www.OpenFOAM.org                      |
|    \\/     M anipulation  |                                                 |
\*---------------------------------------------------------------------------*/
FoamFile
{
    version     2.0;
    format      ascii;
    class       volScalarField;
    location    "1.2";
    object      T;
}
// * * * * * * * * * * * * * * * * * * * * * * * * * * * * * * * * * * * * * //

dimensions      [0 0 0 1 0 0 0];

internalField   nonuniform List<scalar> 
25000
(
300.738
301.387
301.774
302.054
302.278
302.469
302.637
302.79
302.93
303.061
303.183
303.298
303.408
303.511
303.61
303.703
303.791
303.874
303.952
304.024
304.091
304.151
304.205
304.251
304.291
304.322
304.345
304.359
304.363
304.358
304.342
304.315
304.277
304.228
304.166
304.092
304.006
303.906
303.793
303.666
303.524
303.367
303.193
303.001
302.787
302.545
302.266
301.928
301.48
300.769
301.387
302.976
304.047
304.856
305.517
306.083
306.585
307.04
307.459
307.849
308.216
308.561
308.888
309.199
309.494
309.773
310.037
310.286
310.519
310.736
310.935
311.115
311.276
311.416
311.533
311.627
311.695
311.737
311.75
311.734
311.687
311.607
311.494
311.345
311.161
310.939
310.68
310.381
310.042
309.662
309.238
308.768
308.249
307.674
307.035
306.317
305.492
304.508
303.256
301.48
301.773
304.045
305.683
306.968
308.038
308.964
309.79
310.542
311.235
311.881
312.488
313.061
313.604
314.12
314.609
315.074
315.513
315.926
316.313
316.673
317.004
317.304
317.571
317.804
317.999
318.155
318.269
318.338
318.36
318.333
318.255
318.122
317.934
317.687
317.381
317.014
316.583
316.087
315.524
314.893
314.19
313.411
312.551
311.601
310.548
309.369
308.026
306.451
304.51
301.929
302.052
304.851
306.963
308.67
310.115
311.382
312.518
313.555
314.515
315.411
316.255
317.052
317.808
318.525
319.207
319.854
320.466
321.042
321.582
322.083
322.545
322.963
323.336
323.66
323.932
324.15
324.309
324.405
324.437
324.399
324.29
324.106
323.843
323.5
323.073
322.561
321.961
321.271
320.488
319.61
318.632
317.551
316.358
315.043
313.59
311.972
310.145
308.034
305.5
302.269
302.274
305.504
308.022
310.103
311.892
313.476
314.906
316.217
317.435
318.574
319.648
320.664
321.628
322.544
323.415
324.241
325.023
325.759
326.449
327.091
327.68
328.215
328.692
329.107
329.456
329.734
329.937
330.061
330.102
330.054
329.914
329.679
329.344
328.906
328.361
327.707
326.941
326.06
325.061
323.942
322.696
321.32
319.804
318.138
316.302
314.269
311.991
309.393
306.335
302.552
302.461
306.06
308.932
311.347
313.451
315.33
317.037
318.61
320.074
321.448
322.745
323.973
325.14
326.25
327.305
328.307
329.255
330.149
330.986
331.764
332.48
333.13
333.709
334.213
334.636
334.974
335.221
335.372
335.422
335.364
335.196
334.91
334.504
333.973
333.313
332.521
331.593
330.526
329.317
327.962
326.456
324.795
322.968
320.964
318.764
316.339
313.642
310.597
307.07
302.799
302.624
306.547
309.733
312.451
314.843
316.996
318.963
320.784
322.484
324.083
325.594
327.028
328.392
329.689
330.924
332.096
333.207
334.254
335.235
336.147
336.986
337.748
338.427
339.018
339.515
339.911
340.201
340.379
340.437
340.371
340.173
339.84
339.364
338.743
337.971
337.044
335.958
334.711
333.298
331.716
329.959
328.023
325.898
323.572
321.026
318.231
315.143
311.687
307.732
303.021
302.77
306.981
310.451
313.444
316.101
318.508
320.719
322.774
324.698
326.511
328.229
329.86
331.413
332.892
334.3
335.639
336.906
338.102
339.223
340.265
341.225
342.095
342.872
343.547
344.116
344.569
344.902
345.105
345.172
345.097
344.872
344.492
343.95
343.241
342.36
341.303
340.066
338.644
337.035
335.233
333.236
331.036
328.626
325.993
323.119
319.978
316.524
312.687
308.337
303.224
302.901
307.374
311.101
314.345
317.247
319.89
322.33
324.604
326.74
328.758
330.672
332.492
334.227
335.88
337.456
338.953
340.373
341.713
342.969
344.137
345.212
346.188
347.059
347.817
348.455
348.964
349.337
349.566
349.642
349.559
349.308
348.883
348.276
347.483
346.498
345.316
343.932
342.343
340.545
338.534
336.306
333.854
331.173
328.249
325.066
321.598
317.803
313.61
308.896
303.411
303.02
307.731
311.693
315.168
318.296
321.159
323.812
326.292
328.628
330.839
332.939
334.94
336.848
338.668
340.403
342.054
343.62
345.097
346.483
347.773
348.96
350.038
351
351.837
352.542
353.105
353.517
353.771
353.856
353.765
353.489
353.021
352.353
351.48
350.394
349.092
347.569
345.82
343.842
341.63
339.182
336.492
333.553
330.355
326.88
323.106
318.991
314.467
309.413
303.584
303.129
308.058
312.235
315.923
319.259
322.325
325.177
327.85
330.374
332.766
335.043
337.214
339.287
341.266
343.154
344.951
346.655
348.265
349.775
351.181
352.475
353.651
354.7
355.613
356.382
356.997
357.448
357.725
357.819
357.721
357.421
356.912
356.186
355.236
354.056
352.639
350.983
349.082
346.932
344.531
341.875
338.959
335.777
332.32
328.572
324.51
320.096
315.264
309.894
303.745
303.229
308.357
312.732
316.615
320.143
323.398
326.434
329.288
331.986
334.55
336.992
339.324
341.552
343.681
345.713
347.649
349.485
351.22
352.849
354.365
355.761
357.03
358.162
359.148
359.979
360.643
361.13
361.43
361.533
361.428
361.107
360.559
359.778
358.755
357.485
355.961
354.178
352.133
349.822
347.242
344.39
341.261
337.851
334.15
330.146
325.815
321.123
316.004
310.341
303.894
303.32
308.63
313.187
317.249
320.954
324.383
327.589
330.61
333.472
336.195
338.792
341.274
343.648
345.918
348.086
350.152
352.114
353.967
355.708
357.328
358.821
360.178
361.389
362.444
363.332
364.043
364.565
364.887
364.998
364.888
364.546
363.962
363.129
362.038
360.683
359.057
357.156
354.976
352.514
349.766
346.73
343.402
339.778
335.851
331.607
327.027
322.075
316.689
310.754
304.032
303.404
308.88
313.602
317.829
321.696
325.285
328.648
331.823
334.836
337.706
340.447
343.07
345.58
347.982
350.277
352.465
354.543
356.507
358.352
360.071
361.654
363.094
364.379
365.499
366.442
367.197
367.752
368.095
368.214
368.098
367.737
367.12
366.238
365.084
363.649
361.929
359.918
357.612
355.008
352.103
348.896
345.383
341.561
337.423
332.958
328.146
322.954
317.322
311.136
304.16
303.48
309.107
313.98
318.356
322.371
326.106
329.614
332.93
336.082
339.088
341.962
344.713
347.349
349.873
352.286
354.587
356.774
358.841
360.784
362.593
364.261
365.778
367.132
368.312
369.307
370.103
370.689
371.051
371.178
371.057
370.678
370.03
369.104
367.89
366.383
364.575
362.461
360.039
357.304
354.254
350.889
347.205
343.2
338.868
334.199
329.174
323.762
317.903
311.487
304.277
303.548
309.313
314.321
318.833
322.982
326.85
330.488
333.933
337.211
340.341
343.336
346.206
348.957
351.593
354.114
356.519
358.806
360.968
363.001
364.894
366.64
368.228
369.646
370.882
371.924
372.758
373.372
373.753
373.887
373.762
373.367
372.691
371.723
370.456
368.881
366.993
364.785
362.256
359.401
356.219
352.708
348.868
344.696
340.186
335.33
330.111
324.498
318.433
311.806
304.384
303.609
309.496
314.627
319.26
323.53
327.517
331.273
334.834
338.226
341.468
344.573
347.55
350.406
353.143
355.762
358.262
360.639
362.889
365.003
366.973
368.79
370.442
371.918
373.205
374.291
375.16
375.8
376.197
376.338
376.21
375.8
375.098
374.094
372.777
371.142
369.18
366.888
364.261
361.297
357.995
354.353
350.371
346.047
341.377
336.352
330.958
325.163
318.911
312.094
304.48
303.664
309.659
314.899
319.639
324.016
328.108
331.969
335.634
339.128
342.469
345.672
348.745
351.694
354.522
357.23
359.815
362.274
364.6
366.788
368.827
370.708
372.418
373.947
375.28
376.404
377.305
377.969
378.381
378.528
378.397
377.974
377.25
376.212
374.851
373.161
371.134
368.765
366.052
362.99
359.581
355.821
351.713
347.253
342.439
337.264
331.713
325.755
319.338
312.351
304.566
303.711
309.802
315.136
319.97
324.44
328.625
332.578
336.333
339.916
343.346
346.635
349.792
352.823
355.732
358.517
361.177
363.707
366.102
368.355
370.455
372.392
374.154
375.729
377.103
378.262
379.191
379.875
380.301
380.454
380.32
379.886
379.141
378.074
376.675
374.936
372.852
370.416
367.626
364.479
360.974
357.112
352.891
348.312
343.373
338.065
332.376
326.276
319.712
312.577
304.641
303.752
309.924
315.338
320.253
324.803
329.068
333.099
336.932
340.592
344.097
347.46
350.69
353.792
356.77
359.622
362.346
364.939
367.393
369.702
371.855
373.84
375.648
377.263
378.672
379.86
380.813
381.516
381.953
382.111
381.975
381.532
380.769
379.677
378.245
376.465
374.33
371.837
368.981
365.76
362.173
358.222
353.905
349.224
344.175
338.754
332.946
326.724
320.034
312.771
304.706
303.786
310.025
315.507
320.489
325.106
329.437
333.534
337.432
341.155
344.724
348.149
351.439
354.601
357.636
360.544
363.323
365.968
368.472
370.827
373.024
375.051
376.896
378.545
379.983
381.197
382.17
382.888
383.336
383.497
383.359
382.908
382.131
381.018
379.558
377.743
375.567
373.025
370.114
366.831
363.176
359.15
354.753
349.986
344.847
339.33
333.422
327.098
320.304
312.933
304.76
303.813
310.106
315.642
320.678
325.348
329.732
333.881
337.831
341.606
345.225
348.7
352.039
355.249
358.33
361.283
364.106
366.792
369.336
371.73
373.962
376.022
377.897
379.573
381.035
382.269
383.259
383.99
384.445
384.61
384.47
384.013
383.224
382.094
380.612
378.769
376.56
373.979
371.023
367.69
363.981
359.895
355.433
350.597
345.385
339.792
333.805
327.398
320.519
313.064
304.804
303.833
310.167
315.743
320.819
325.53
329.953
334.142
338.131
341.945
345.601
349.113
352.49
355.735
358.851
361.838
364.693
367.412
369.986
372.408
374.667
376.752
378.649
380.346
381.826
383.075
384.078
384.817
385.279
385.446
385.306
384.843
384.046
382.903
381.404
379.541
377.306
374.696
371.707
368.337
364.586
360.455
355.945
351.057
345.79
340.139
334.092
327.624
320.682
313.161
304.837
303.847
310.207
315.811
320.914
325.651
330.101
334.316
338.331
342.17
345.852
349.389
352.79
356.059
359.199
362.209
365.086
367.825
370.419
372.86
375.138
377.239
379.152
380.862
382.354
383.614
384.624
385.37
385.836
386.005
385.864
385.398
384.595
383.444
381.933
380.056
377.805
375.175
372.163
368.768
364.99
360.829
356.286
351.364
346.06
340.371
334.284
327.774
320.79
313.227
304.858
303.853
310.228
315.844
320.961
325.711
330.175
334.403
338.431
342.283
345.978
349.527
352.94
356.221
359.373
362.394
365.282
368.032
370.636
373.087
375.373
377.483
379.403
381.12
382.619
383.883
384.898
385.647
386.114
386.285
386.143
385.676
384.87
383.714
382.198
380.314
378.054
375.415
372.392
368.984
365.192
361.016
356.457
351.517
346.195
340.487
334.38
327.85
320.844
313.259
304.869
303.853
310.228
315.844
320.961
325.711
330.175
334.403
338.431
342.283
345.978
349.527
352.94
356.221
359.373
362.394
365.282
368.032
370.636
373.087
375.373
377.483
379.403
381.12
382.619
383.883
384.898
385.647
386.114
386.285
386.143
385.676
384.87
383.714
382.198
380.314
378.054
375.415
372.392
368.984
365.192
361.016
356.457
351.517
346.195
340.487
334.38
327.85
320.844
313.259
304.869
303.847
310.207
315.811
320.914
325.651
330.101
334.316
338.331
342.17
345.852
349.389
352.79
356.059
359.199
362.209
365.086
367.825
370.42
372.861
375.138
377.239
379.152
380.862
382.355
383.614
384.625
385.37
385.836
386.005
385.864
385.398
384.595
383.444
381.933
380.056
377.805
375.175
372.163
368.768
364.99
360.829
356.286
351.364
346.06
340.371
334.284
327.774
320.79
313.227
304.858
303.833
310.167
315.743
320.819
325.53
329.953
334.142
338.131
341.945
345.601
349.113
352.49
355.735
358.851
361.838
364.694
367.412
369.986
372.408
374.667
376.752
378.65
380.346
381.826
383.076
384.078
384.818
385.279
385.447
385.306
384.844
384.046
382.903
381.404
379.541
377.306
374.696
371.707
368.337
364.586
360.455
355.945
351.057
345.79
340.139
334.092
327.624
320.682
313.161
304.837
303.813
310.106
315.642
320.678
325.348
329.732
333.881
337.831
341.606
345.225
348.7
352.039
355.249
358.33
361.283
364.106
366.792
369.337
371.73
373.962
376.022
377.897
379.573
381.036
382.269
383.259
383.99
384.445
384.61
384.471
384.013
383.224
382.094
380.612
378.769
376.56
373.979
371.023
367.69
363.981
359.895
355.433
350.597
345.385
339.792
333.805
327.398
320.519
313.064
304.804
303.786
310.025
315.507
320.489
325.106
329.437
333.534
337.432
341.156
344.724
348.149
351.439
354.601
357.636
360.544
363.323
365.968
368.472
370.828
373.024
375.051
376.896
378.545
379.983
381.197
382.171
382.889
383.336
383.498
383.359
382.908
382.131
381.018
379.558
377.743
375.567
373.025
370.114
366.831
363.176
359.15
354.753
349.986
344.847
339.33
333.422
327.098
320.303
312.933
304.76
303.752
309.924
315.338
320.253
324.803
329.068
333.099
336.932
340.592
344.097
347.46
350.69
353.793
356.77
359.622
362.346
364.939
367.394
369.702
371.855
373.841
375.648
377.263
378.672
379.86
380.814
381.516
381.954
382.111
381.975
381.532
380.769
379.677
378.245
376.465
374.331
371.837
368.981
365.76
362.173
358.222
353.905
349.224
344.175
338.754
332.946
326.724
320.034
312.771
304.706
303.711
309.802
315.136
319.97
324.44
328.625
332.578
336.333
339.916
343.346
346.635
349.792
352.824
355.732
358.517
361.177
363.707
366.103
368.355
370.455
372.392
374.155
375.73
377.103
378.262
379.191
379.876
380.301
380.454
380.32
379.886
379.141
378.074
376.675
374.937
372.852
370.416
367.626
364.479
360.974
357.112
352.891
348.312
343.373
338.065
332.375
326.276
319.712
312.577
304.641
303.664
309.659
314.899
319.639
324.016
328.108
331.969
335.634
339.128
342.47
345.673
348.746
351.695
354.523
357.23
359.815
362.274
364.601
366.788
368.827
370.708
372.419
373.947
375.281
376.405
377.306
377.969
378.381
378.529
378.397
377.975
377.25
376.212
374.852
373.161
371.134
368.766
366.052
362.991
359.581
355.821
351.713
347.253
342.439
337.264
331.712
325.755
319.338
312.351
304.566
303.609
309.496
314.627
319.26
323.53
327.517
331.273
334.834
338.226
341.468
344.573
347.55
350.406
353.143
355.762
358.263
360.64
362.889
365.003
366.973
368.79
370.442
371.919
373.206
374.291
375.16
375.801
376.198
376.339
376.21
375.801
375.099
374.094
372.778
371.142
369.18
366.888
364.261
361.297
357.995
354.353
350.371
346.047
341.377
336.352
330.957
325.162
318.911
312.094
304.48
303.548
309.313
314.321
318.833
322.982
326.85
330.488
333.933
337.212
340.341
343.336
346.206
348.958
351.593
354.114
356.52
358.806
360.969
363.001
364.895
366.641
368.228
369.646
370.882
371.924
372.759
373.373
373.753
373.887
373.763
373.368
372.691
371.724
370.456
368.881
366.993
364.786
362.256
359.401
356.219
352.708
348.868
344.696
340.186
335.33
330.111
324.498
318.433
311.806
304.384
303.48
309.107
313.98
318.356
322.371
326.106
329.614
332.93
336.082
339.088
341.962
344.713
347.349
349.873
352.286
354.587
356.774
358.842
360.784
362.594
364.262
365.778
367.132
368.313
369.307
370.103
370.689
371.051
371.178
371.058
370.679
370.031
369.104
367.891
366.383
364.575
362.461
360.039
357.304
354.254
350.889
347.205
343.2
338.868
334.198
329.174
323.762
317.903
311.486
304.277
303.404
308.88
313.602
317.829
321.696
325.285
328.648
331.824
334.837
337.707
340.448
343.07
345.58
347.982
350.277
352.465
354.543
356.508
358.353
360.071
361.655
363.094
364.379
365.499
366.443
367.198
367.753
368.095
368.214
368.099
367.737
367.12
366.238
365.084
363.65
361.929
359.918
357.612
355.008
352.103
348.896
345.383
341.561
337.423
332.957
328.146
322.954
317.322
311.136
304.16
303.32
308.63
313.187
317.249
320.954
324.383
327.59
330.61
333.472
336.195
338.792
341.274
343.648
345.919
348.087
350.153
352.114
353.968
355.708
357.328
358.821
360.178
361.389
362.444
363.333
364.044
364.566
364.888
364.999
364.888
364.546
363.962
363.129
362.038
360.683
359.057
357.156
354.976
352.514
349.766
346.73
343.402
339.778
335.851
331.607
327.027
322.075
316.689
310.754
304.032
303.229
308.357
312.732
316.615
320.143
323.398
326.434
329.288
331.986
334.55
336.992
339.324
341.552
343.681
345.714
347.649
349.486
351.221
352.849
354.365
355.762
357.031
358.163
359.149
359.979
360.643
361.131
361.431
361.533
361.429
361.107
360.56
359.778
358.756
357.485
355.961
354.178
352.133
349.822
347.242
344.39
341.261
337.851
334.15
330.146
325.815
321.122
316.003
310.34
303.894
303.129
308.058
312.235
315.923
319.259
322.325
325.177
327.851
330.374
332.767
335.043
337.214
339.287
341.266
343.154
344.951
346.656
348.265
349.776
351.181
352.476
353.651
354.7
355.614
356.383
356.997
357.448
357.725
357.82
357.721
357.422
356.913
356.187
355.236
354.056
352.64
350.983
349.082
346.932
344.532
341.875
338.959
335.777
332.319
328.571
324.51
320.095
315.264
309.894
303.745
303.02
307.731
311.693
315.169
318.296
321.159
323.812
326.292
328.628
330.839
332.939
334.94
336.848
338.669
340.404
342.055
343.62
345.098
346.484
347.773
348.961
350.039
351
351.838
352.542
353.105
353.518
353.771
353.857
353.766
353.49
353.021
352.354
351.48
350.395
349.093
347.569
345.82
343.842
341.631
339.182
336.492
333.553
330.354
326.88
323.106
318.991
314.467
309.413
303.584
302.901
307.374
311.101
314.345
317.247
319.89
322.33
324.604
326.74
328.758
330.672
332.492
334.227
335.881
337.456
338.954
340.374
341.713
342.969
344.137
345.213
346.189
347.06
347.818
348.455
348.965
349.338
349.566
349.643
349.559
349.308
348.883
348.277
347.484
346.498
345.316
343.932
342.343
340.545
338.534
336.306
333.854
331.172
328.249
325.066
321.598
317.803
313.61
308.896
303.411
302.77
306.981
310.451
313.444
316.101
318.508
320.72
322.774
324.698
326.512
328.229
329.861
331.414
332.893
334.301
335.639
336.907
338.103
339.223
340.266
341.225
342.096
342.872
343.548
344.116
344.57
344.902
345.105
345.173
345.098
344.873
344.492
343.95
343.241
342.36
341.303
340.066
338.644
337.035
335.233
333.236
331.036
328.625
325.993
323.119
319.978
316.524
312.687
308.337
303.224
302.624
306.547
309.733
312.451
314.843
316.996
318.963
320.784
322.484
324.083
325.594
327.028
328.392
329.69
330.924
332.097
333.207
334.254
335.235
336.148
336.987
337.749
338.428
339.018
339.515
339.912
340.202
340.379
340.438
340.371
340.174
339.84
339.365
338.743
337.971
337.044
335.958
334.711
333.298
331.716
329.959
328.023
325.898
323.571
321.025
318.231
315.143
311.687
307.732
303.021
302.461
306.06
308.932
311.348
313.452
315.33
317.037
318.61
320.074
321.448
322.745
323.974
325.141
326.25
327.305
328.307
329.255
330.149
330.987
331.765
332.481
333.13
333.71
334.213
334.637
334.975
335.222
335.373
335.422
335.365
335.196
334.911
334.504
333.973
333.313
332.521
331.593
330.526
329.317
327.962
326.456
324.795
322.968
320.964
318.764
316.338
313.642
310.597
307.07
302.799
302.274
305.504
308.022
310.103
311.893
313.476
314.906
316.217
317.435
318.574
319.648
320.664
321.628
322.544
323.415
324.241
325.023
325.76
326.45
327.091
327.681
328.216
328.693
329.108
329.456
329.734
329.938
330.062
330.102
330.054
329.915
329.679
329.344
328.906
328.361
327.707
326.941
326.06
325.062
323.942
322.696
321.32
319.804
318.138
316.302
314.268
311.991
309.392
306.335
302.552
302.052
304.851
306.963
308.67
310.115
311.382
312.518
313.555
314.515
315.411
316.255
317.052
317.808
318.526
319.207
319.854
320.466
321.042
321.582
322.084
322.545
322.963
323.336
323.66
323.933
324.15
324.309
324.406
324.437
324.4
324.29
324.106
323.843
323.5
323.074
322.562
321.962
321.271
320.488
319.61
318.632
317.551
316.358
315.043
313.59
311.972
310.145
308.034
305.5
302.269
301.773
304.045
305.683
306.968
308.038
308.965
309.791
310.542
311.235
311.881
312.488
313.061
313.604
314.12
314.61
315.074
315.513
315.926
316.314
316.673
317.004
317.304
317.571
317.804
317.999
318.155
318.269
318.338
318.361
318.334
318.255
318.123
317.934
317.688
317.381
317.014
316.583
316.087
315.524
314.893
314.19
313.411
312.551
311.601
310.548
309.369
308.026
306.45
304.51
301.929
301.387
302.976
304.047
304.856
305.517
306.083
306.585
307.04
307.459
307.849
308.216
308.561
308.888
309.199
309.494
309.773
310.037
310.286
310.519
310.736
310.935
311.115
311.276
311.416
311.533
311.627
311.695
311.737
311.751
311.734
311.687
311.607
311.494
311.345
311.161
310.94
310.68
310.381
310.042
309.662
309.238
308.768
308.249
307.674
307.035
306.317
305.492
304.508
303.256
301.48
300.738
301.387
301.774
302.054
302.278
302.469
302.637
302.79
302.93
303.061
303.183
303.298
303.408
303.511
303.61
303.703
303.791
303.874
303.952
304.024
304.091
304.151
304.205
304.252
304.291
304.322
304.345
304.359
304.363
304.358
304.342
304.315
304.277
304.228
304.166
304.092
304.006
303.906
303.793
303.666
303.524
303.367
303.193
303.001
302.787
302.545
302.266
301.928
301.48
300.769
300.299
300.739
301.066
301.324
301.539
301.725
301.891
302.042
302.182
302.312
302.434
302.55
302.659
302.763
302.862
302.955
303.044
303.127
303.205
303.277
303.344
303.404
303.458
303.505
303.544
303.576
303.598
303.612
303.617
303.611
303.596
303.569
303.531
303.481
303.42
303.346
303.259
303.159
303.046
302.918
302.777
302.62
302.447
302.256
302.044
301.806
301.536
301.22
300.833
300.331
300.739
301.928
302.858
303.611
304.247
304.801
305.296
305.748
306.165
306.554
306.92
307.265
307.593
307.904
308.199
308.479
308.744
308.993
309.227
309.444
309.643
309.824
309.985
310.126
310.243
310.337
310.406
310.448
310.461
310.445
310.397
310.318
310.204
310.055
309.87
309.649
309.389
309.09
308.751
308.37
307.946
307.477
306.959
306.388
305.755
305.049
304.249
303.321
302.209
300.833
301.065
302.857
304.311
305.518
306.55
307.457
308.273
309.019
309.709
310.353
310.96
311.533
312.077
312.593
313.084
313.549
313.989
314.403
314.791
315.152
315.484
315.784
316.052
316.285
316.481
316.638
316.752
316.821
316.844
316.817
316.738
316.605
316.416
316.169
315.863
315.494
315.063
314.566
314.003
313.371
312.668
311.891
311.033
310.088
309.045
307.884
306.578
305.081
303.324
301.221
301.321
303.606
305.513
307.127
308.527
309.769
310.892
311.922
312.878
313.773
314.615
315.413
316.169
316.888
317.571
318.219
318.832
319.41
319.951
320.454
320.916
321.336
321.709
322.034
322.308
322.526
322.685
322.782
322.813
322.776
322.666
322.481
322.218
321.875
321.447
320.934
320.333
319.642
318.858
317.98
317.002
315.922
314.732
313.424
311.983
310.388
308.606
306.586
304.257
301.54
301.534
304.234
306.534
308.514
310.253
311.809
313.223
314.527
315.74
316.877
317.95
318.966
319.932
320.849
321.721
322.549
323.332
324.071
324.762
325.405
325.997
326.533
327.011
327.427
327.777
328.055
328.259
328.384
328.424
328.377
328.237
328.001
327.665
327.226
326.68
326.025
325.258
324.376
323.376
322.255
321.01
319.635
318.123
316.464
314.643
312.635
310.407
307.908
305.068
301.813
301.717
304.778
307.425
309.735
311.784
313.633
315.323
316.887
318.347
319.718
321.015
322.244
323.412
324.523
325.58
326.584
327.534
328.43
329.269
330.05
330.767
331.419
331.999
332.504
332.929
333.268
333.516
333.667
333.717
333.659
333.49
333.204
332.797
332.265
331.604
330.81
329.88
328.812
327.601
326.246
324.74
323.08
321.257
319.261
317.076
314.679
312.035
309.094
305.79
302.056
301.878
305.258
308.216
310.825
313.161
315.282
317.232
319.043
320.738
322.335
323.846
325.28
326.645
327.945
329.182
330.357
331.47
332.519
333.503
334.417
335.259
336.022
336.703
337.295
337.794
338.191
338.482
338.66
338.719
338.652
338.454
338.12
337.644
337.021
336.247
335.318
334.231
332.982
331.567
329.984
328.227
326.292
324.171
321.853
319.323
316.558
313.524
310.175
306.446
302.276
302.022
305.688
308.928
311.81
314.41
316.785
318.979
321.023
322.942
324.753
326.47
328.103
329.658
331.139
332.55
333.891
335.161
336.36
337.484
338.529
339.49
340.363
341.142
341.819
342.389
342.844
343.177
343.381
343.449
343.373
343.148
342.767
342.224
341.513
340.631
339.571
338.332
336.908
335.297
333.494
331.496
329.297
326.89
324.266
321.409
318.297
314.899
311.169
307.048
302.478
302.153
306.079
309.574
312.708
315.551
318.162
320.584
322.848
324.979
326.994
328.908
330.73
332.467
334.123
335.702
337.202
338.625
339.968
341.227
342.398
343.476
344.455
345.328
346.088
346.727
347.238
347.612
347.842
347.918
347.835
347.583
347.157
346.549
345.755
344.767
343.583
342.197
340.605
338.805
336.792
334.563
332.112
329.434
326.518
323.352
319.914
316.175
312.091
307.605
302.664
302.272
306.435
310.165
313.529
316.598
319.428
322.063
324.533
326.864
329.073
331.174
333.176
335.087
336.91
338.649
340.303
341.872
343.353
344.743
346.035
347.226
348.307
349.271
350.11
350.817
351.381
351.795
352.049
352.135
352.044
351.767
351.298
350.629
349.753
348.666
347.361
345.835
344.083
342.102
339.889
337.44
334.75
331.814
328.623
325.165
321.421
317.362
312.947
308.122
302.837
302.381
306.761
310.707
314.283
317.56
320.594
323.427
326.091
328.61
331.001
333.278
335.451
337.527
339.509
341.401
343.201
344.91
346.523
348.037
349.446
350.744
351.923
352.975
353.891
354.661
355.278
355.73
356.008
356.102
356.004
355.704
355.194
354.466
353.514
352.331
350.912
349.252
347.348
345.196
342.792
340.134
337.218
334.039
330.589
326.857
322.825
318.467
313.743
308.603
302.998
302.48
307.06
311.203
314.975
318.444
321.667
324.684
327.529
330.223
332.785
335.228
337.562
339.794
341.926
343.963
345.902
347.743
349.483
351.115
352.635
354.035
355.307
356.442
357.431
358.263
358.929
359.418
359.719
359.822
359.717
359.395
358.846
358.063
357.038
355.765
354.238
352.452
350.403
348.089
345.506
342.652
339.523
336.115
332.422
328.433
324.132
319.495
314.484
309.049
303.147
302.572
307.334
311.658
315.609
319.256
322.652
325.841
328.853
331.71
334.432
337.03
339.515
341.893
344.167
346.339
348.41
350.376
352.234
353.978
355.603
357.1
358.46
359.674
360.732
361.623
362.336
362.859
363.182
363.294
363.183
362.84
362.255
361.42
360.327
358.969
357.34
355.435
353.251
350.785
348.034
344.995
341.667
338.045
334.125
329.896
325.345
320.448
315.17
309.464
303.285
302.655
307.584
312.074
316.189
319.998
323.555
326.901
330.067
333.076
335.946
338.688
341.314
343.827
346.234
348.533
350.726
352.809
354.779
356.628
358.351
359.938
361.382
362.67
363.793
364.739
365.496
366.052
366.396
366.516
366.4
366.037
365.419
364.535
363.378
361.941
360.217
358.202
355.892
353.284
350.375
347.165
343.652
339.831
335.7
331.249
326.466
321.329
315.804
309.846
303.413
302.731
307.812
312.452
316.717
320.675
324.378
327.868
331.176
334.324
337.33
340.205
342.96
345.6
348.128
350.546
352.853
355.044
357.117
359.064
360.878
362.551
364.071
365.429
366.612
367.609
368.408
368.995
369.358
369.486
369.365
368.985
368.336
367.407
366.191
364.68
362.869
360.751
358.324
355.585
352.531
349.163
345.477
341.474
337.147
332.492
327.496
322.138
316.387
310.197
303.531
302.8
308.017
312.795
317.195
321.287
325.123
328.744
332.181
335.456
338.585
341.583
344.456
347.212
349.852
352.378
354.789
357.081
359.249
361.286
363.185
364.935
366.527
367.948
369.188
370.232
371.069
371.685
372.066
372.201
372.076
371.68
371.002
370.033
368.763
367.184
365.292
363.08
360.546
357.686
354.5
350.986
347.144
342.972
338.468
333.626
328.435
322.876
316.917
310.517
303.638
302.861
308.201
313.101
317.623
321.836
325.791
329.53
333.083
336.473
339.715
342.822
345.803
348.663
351.405
354.03
356.536
358.919
361.173
363.293
365.268
367.089
368.746
370.226
371.517
372.605
373.477
374.118
374.517
374.658
374.53
374.119
373.416
372.409
371.089
369.45
367.484
365.187
362.556
359.587
356.28
352.634
348.65
344.327
339.662
334.651
329.283
323.542
317.397
310.806
303.734
302.916
308.365
313.373
318.003
322.322
326.384
330.228
333.885
337.376
340.718
343.924
347.001
349.955
352.788
355.501
358.092
360.557
362.889
365.082
367.126
369.012
370.727
372.26
373.596
374.724
375.627
376.292
376.706
376.853
376.722
376.299
375.572
374.532
373.168
371.474
369.443
367.07
364.351
361.284
357.87
354.106
349.995
345.536
340.727
335.565
330.04
324.136
317.824
311.064
303.82
302.963
308.507
313.61
318.335
322.748
326.902
330.838
334.586
338.166
341.597
344.888
348.05
351.086
354
356.791
359.457
361.994
364.395
366.653
368.758
370.7
372.467
374.046
375.424
376.586
377.517
378.203
378.63
378.784
378.649
378.215
377.468
376.398
374.996
373.254
371.165
368.724
365.929
362.776
359.266
355.4
351.176
346.598
341.662
336.367
330.705
324.658
318.2
311.29
303.896
303.004
308.629
313.814
318.619
323.112
327.346
331.361
335.186
338.844
342.35
345.716
348.95
352.058
355.041
357.899
360.63
363.228
365.689
368.003
370.161
372.152
373.964
375.584
376.996
378.188
379.144
379.848
380.287
380.445
380.309
379.864
379.1
378.005
376.57
374.786
372.647
370.149
367.287
364.06
360.469
356.512
352.193
347.511
342.467
337.058
331.276
325.107
318.522
311.485
303.961
303.038
308.731
313.983
318.855
323.415
327.716
331.797
335.687
339.409
342.978
346.406
349.701
352.868
355.909
358.824
361.609
364.26
366.77
369.132
371.334
373.366
375.216
376.869
378.311
379.528
380.504
381.224
381.673
381.835
381.697
381.244
380.466
379.35
377.887
376.068
373.887
371.34
368.423
365.134
361.474
357.443
353.043
348.275
343.14
337.635
331.754
325.482
318.792
311.647
304.015
303.065
308.812
314.118
319.044
323.658
328.012
332.145
336.087
339.86
343.48
346.958
350.303
353.517
356.605
359.565
362.393
365.086
367.637
370.036
372.274
374.34
376.219
377.9
379.366
380.603
381.596
382.328
382.785
382.95
382.811
382.352
381.562
380.429
378.943
377.096
374.882
372.296
369.334
365.996
362.281
358.19
353.725
348.888
343.68
338.098
332.137
325.783
319.009
311.778
304.059
303.085
308.873
314.22
319.186
323.84
328.234
332.406
336.388
340.2
343.858
347.373
350.754
354.005
357.127
360.121
362.983
365.707
368.288
370.716
372.981
375.071
376.974
378.675
380.159
381.411
382.417
383.158
383.621
383.789
383.648
383.185
382.386
381.24
379.738
377.87
375.631
373.015
370.02
366.644
362.887
358.751
354.238
349.349
344.086
338.447
332.426
326.009
319.171
311.876
304.092
303.099
308.914
314.287
319.281
323.961
328.381
332.581
336.588
340.426
344.109
347.65
351.055
354.33
357.476
360.492
363.376
366.122
368.723
371.17
373.453
375.56
377.477
379.192
380.688
381.951
382.965
383.713
384.179
384.349
384.208
383.741
382.936
381.782
380.268
378.387
376.13
373.495
370.478
367.077
363.292
359.126
354.58
349.657
344.357