/*--------------------------------*- C++ -*----------------------------------*\
| =========                 |                                                 |
| \\      /  F ield         | OpenFOAM: The Open Source CFD Toolbox           |
|  \\    /   O peration     | Version:  5.x                                   |
|   \\  /    A nd           | Web:      www.OpenFOAM.org                      |
|    \\/     M anipulation  |                                                 |
\*---------------------------------------------------------------------------*/
FoamFile
{
    version     2.0;
    format      ascii;
    class       volScalarField;
    location    "1.5";
    object      gradTy;
}
// * * * * * * * * * * * * * * * * * * * * * * * * * * * * * * * * * * * * * //

dimensions      [0 -1 0 1 0 0 0];

internalField   nonuniform List<scalar> 
25000
(
5285.88
10828.5
14417.1
17080.9
19229.5
21053.3
22652.9
24086.2
25389.5
26586.5
27693.1
28720.4
29676.4
30566.3
31393.8
32161.4
32870.5
33521.6
34114.6
34649
35123.6
35537.1
35887.8
36173.7
36392.6
36542.3
36620.5
36624.8
36552.6
36401.5
36169.2
35853.2
35451
34960.5
34379
33703.9
32932.5
32061.5
31086.8
30003.3
28804.2
27479.8
26016
24391.7
22573.9
20507.7
18096.6
15154.3
11275.5
5435.67
2561.65
6566.4
9637.71
12093
14142.5
15912.1
17478.5
18889.8
20177.3
21362.3
22459.5
23479.2
24428.7
25313.1
26135.9
26899.3
27604.8
28252.6
28842.8
29374.7
29847.2
30258.9
30608
30892.6
31110.7
31259.9
31337.8
31342.1
31270.4
31120.2
30889.1
30574.7
30174.7
29686.8
29108.4
28437.2
27670.3
26804.7
25836.5
24760.9
23571.6
22259.6
20812.2
19210.8
17426.9
15415.8
13104.9
10372.1
7011.72
2710.88
1636.33
4606.47
7156.61
9341.33
11240.2
12919.2
14426.9
15797.4
17055.1
18217.3
19296.3
20301
21237.9
22111.5
22925
23680.2
24378.4
25019.9
25604.4
26131.4
26599.6
27007.6
27353.7
27635.9
27852.2
28000.2
28077.7
28082.2
28011.4
27862.9
27634.2
27323.1
26927.3
26444.5
25872.5
25208.8
24450.8
23595.9
22640.4
21580.2
20409.8
19121.6
17705.2
16145.9
14422.4
12503.8
10345.5
7885.38
5048.39
1784.42
1224.29
3569.12
5713.34
7643.32
9379.71
10951.2
12384.4
13700.9
14917.8
16048
17101.1
18084.3
19002.9
19860.7
20660.4
21403.5
22091
22723
23299.2
23818.8
24280.6
24683.2
25024.8
25303.5
25517.1
25663.4
25740.2
25745
25675.5
25529.4
25304.3
24998.1
24608.5
24133.4
23570.6
22917.9
22173.1
21333.7
20396.7
19358.7
18215.2
16960.5
15586.8
14083.6
12437.1
10628.8
8635.89
6433.73
4005.95
1370.67
996.545
2944.76
4787.71
6501.04
8083.35
9543.88
10895.2
12149.6
13317.8
14408.8
15429.5
16385.5
17280.7
18118.3
18900.1
19627.5
20300.9
20920.5
21485.7
21995.7
22449.1
22844.5
23180.2
23454.1
23664.2
23808.3
23884.1
23889.2
23821.5
23678.6
23458.3
23158.4
22776.9
22311.8
21761
21122.7
20394.9
19575.5
18662.2
17652.3
16542.5
15328.9
14006.2
12568.2
11006.8
9313.13
7478.26
5496.95
3374.83
1140.66
850.186
2527.18
4143.4
5677.35
7120.9
8474.27
9741.92
10929.9
12044.4
13090.9
14074.3
14998.2
15865.7
16678.9
17439.2
18147.4
18803.8
19408.2
19959.9
20457.9
20901.1
21287.7
21616
21884
22089.8
22231
22305.6
22311.1
22245.5
22106.5
21892
21599.9
21228.3
20775.3
20239.2
19618.3
18911
18115.6
17230.4
16253.6
15182.9
14016.1
12750.3
11382.2
9908.59
8326.62
6635.46
4838.77
2948.84
991.482
745.871
2223.7
3663.37
5048.1
6368.66
7621.56
8806.99
9927.07
10984.8
11983.2
12925.3
13813.3
14649.3
15434.6
16170
16856
17492.5
18079.1
18615
19099.1
19530.1
19906.2
20225.8
20487
20687.5
20825.4
20898.5
20904.5
20841.3
20706.8
20499
20216
19855.9
19417.1
18898
18297.3
17613.6
16845.7
15992.4
15052.7
14025.5
12909.6
11704.1
10408.2
9021.73
7545.67
5983.39
4342.18
2635.32
883.802
665.783
1988.26
3285.07
4543.4
5754.76
6914.42
8020.48
9072.79
10072.2
11020.2
11918
12767.1
13568.5
14322.8
15030.4
15691.4
16305.5
16871.9
17389.8
17858
18275
18639.2
18948.8
19202
19396.6
19530.6
19601.8
19608.3
19547.8
19418.4
19218.3
18945.5
18598.4
18175.6
17675.7
17097.6
16440.2
15702.7
14884.6
13985.3
13004.6
11942.6
10799.6
9576.42
8274.99
6898.48
5452.24
3944.68
2388.24
799.812
600.746
1795.89
2972.79
4121.58
5234.95
6308.06
7338.05
8323.57
9264.2
10160.1
11011.7
11819.3
12583.5
13304.2
13981.5
14615.1
15204.3
15748.4
16246.3
16696.7
17098.1
17448.9
17747.4
17991.5
18179.4
18309
18378.2
18385
18327.5
18203.8
18012
17750.6
17417.9
17012.7
16533.8
15980.4
15351.7
14647.2
13866.9
13010.7
12079
11072.8
9993.31
8842.6
7623.68
6340.9
5000.4
3610.61
2182.65
730.348
545.568
1632.04
2704.96
3756.62
4780.85
5773.1
6730.24
7650.3
8532.11
9375.04
10178.8
10943.1
11667.9
12352.9
12997.6
13601.6
14163.9
14683.6
15159.6
15590.6
15974.9
16311
16597.1
16831.3
17011.7
17136.3
17203.2
17210.5
17156.1
17038.5
16855.8
16606.6
16289.5
15903.3
15447.2
14920.3
14322.4
13653.1
12912.6
12101.6
11220.8
10271.8
9256.41
8177.46
7038.59
5844.65
4601.95
3318.48
2004.06
670.231
497.1
1487.74
2467.97
3431.64
4373.57
5289.65
6176.81
7032.81
7856.06
8645.49
9400.29
10119.8
10803.6
11450.9
12061.1
12633.5
13167
13660.6
14113.1
14523
14888.8
15208.9
15481.6
15705
15877.2
15996.4
16060.7
16068.2
16017.2
15906
15733.1
15497
15196.5
14830.6
14398.7
13900
13334.5
12702.2
12003.5
11239.3
10410.8
9519.89
8568.89
7560.93
6499.97
5390.98
4240.11
3054.74
1843.54
616.328
453.335
1357.21
2252.87
3135.31
4000.2
4843.9
5663.51
6456.74
7221.85
7957.46
8662.51
9336.07
9977.3
10585.4
11159.4
11698.5
12201.6
12667.4
13094.8
13482.2
13828.3
14131.2
14389.4
14601.1
14764.5
14877.8
14939.2
14947
14899.4
14795
14632.3
14410
14127.1
13782.7
13376.1
12907.1
12375.5
11781.7
11126.3
10410.3
9635.22
8803.14
7916.63
6978.96
5994.17
4967.14
3903.67
2810.52
1695.36
566.648
412.938
1236.57
2053.57
2859.85
3651.73
4426.03
5180.09
5911.7
6619.06
7300.7
7955.37
8581.97
9179.5
9746.99
10283.4
10787.7
11258.8
11695.5
12096.4
12460.1
12785.1
13069.8
13312.6
13511.9
13665.8
13772.7
13830.9
13838.8
13794.8
13697.4
13545.4
13337.6
13073.1
12751
12371
11932.8
11436.4
10882.4
10271.5
9604.81
8884.08
8111.41
7289.47
6421.55
5511.6
4564.28
3584.99
2579.86
1555.7
519.876
374.992
1123.14
1865.87
2599.77
3321.72
4028.96
4719.08
5390.02
6040.01
6667.57
7271.37
7850.23
8403.06
8928.79
9426.34
9894.6
10332.4
10738.5
11111.7
11450.4
11753.3
12018.9
12245.4
12431.5
12575.4
12675.5
12730.2
12738.1
12697.7
12607.6
12466.7
12273.9
12028.4
11729.6
11377
10970.6
10510.6
9997.5
9432.12
8815.76
8150.1
7437.3
6680.03
5881.46
5045.38
4176.15
3278.72
2358.63
1421.94
475.119
338.852
1015.04
1686.75
2351.11
3005.49
3647.49
4274.95
4885.98
5478.92
6052.32
6604.85
7135.32
7642.59
8125.56
8583.14
9014.19
9417.55
9792
10136.3
10449
10728.8
10974.2
11183.8
11355.9
11489.2
11582.1
11633.1
11640.9
11604
11521.4
11391.9
11214.6
10988.8
10713.9
10389.6
10016
9593.28
9121.99
8603.07
8037.81
7427.88
6775.4
6082.91
5353.46
4590.57
3798.27
2981.07
2143.95
1292.28
431.754
304.055
910.907
1514.02
2111.01
2699.61
3277.76
3843.55
4395.28
4931.43
5450.59
5951.52
6433.03
6894.01
7333.36
7750.01
8142.83
8510.71
8852.45
9166.83
9452.59
9708.39
9932.87
10124.6
10282.3
10404.5
10489.8
10536.8
10544.3
10511.1
10436.1
10318.3
10156.9
9951.19
9700.85
9405.61
9065.5
8680.84
8252.21
7780.54
7267.08
6713.46
6121.68
5494.15
4833.7
4143.58
3427.44
2689.36
1933.77
1165.43
389.345
270.261
809.736
1346.09
1877.32
2401.51
2916.88
3421.77
3914.67
4394.19
4859.05
5308.07
5740.15
6154.2
6549.19
6924.07
7277.79
7609.26
7917.38
8201
8458.92
8689.91
8892.72
9066.08
9208.69
9319.28
9396.59
9439.39
9446.54
9416.94
9349.62
9243.72
9098.52
8913.47
8688.21
8422.58
8116.65
7770.76
7385.5
6961.75
6500.72
6003.92
5473.23
4910.87
4319.41
3701.8
3061.33
2401.63
1726.62
1040.48
347.582
237.22
710.788
1181.76
1648.46
2109.27
2562.67
3007.24
3441.65
3864.66
4275.14
4672
5054.21
5420.79
5770.76
6103.16
6417
6711.29
6984.98
7237.04
7466.37
7671.84
7852.33
8006.67
8133.72
8232.31
8301.32
8339.66
8346.31
8320.3
8260.77
8166.97
8038.27
7874.2
7674.47
7438.97
7167.79
6861.27
6519.98
6144.74
5736.68
5297.17
4827.93
4330.96
3808.57
3263.37
2698.29
2116.51
1521.46
916.774
306.244
204.741
613.506
1020.13
1423.22
1821.42
2213.47
2598.15
2974.31
3340.9
3696.9
4041.35
4373.34
4691.98
4996.38
5285.68
5558.98
5815.38
6053.96
6273.77
6473.84
6653.17
6810.76
6945.57
7056.59
7142.81
7203.23
7236.91
7242.94
7220.49
7168.81
7087.25
6975.29
6832.52
6658.7
6453.76
6217.82
5951.18
5654.38
5328.16
4973.53
4591.74
4184.29
3752.95
3299.75
2826.97
2337.14
1833.02
1317.55
793.856
265.176
172.683
517.467
860.508
1200.67
1536.85
1868
2193.1
2511.2
2821.4
3122.82
3414.66
3696.12
3966.41
4224.77
4470.43
4702.62
4920.55
5123.42
5310.4
5480.64
5633.29
5767.48
5882.31
5976.92
6050.44
6102.02
6130.84
6136.14
6117.22
6073.44
6004.24
5909.2
5787.98
5640.4
5466.4
5266.09
5039.77
4787.89
4511.13
4210.35
3886.64
3541.29
3175.83
2791.97
2391.66
1977.05
1550.46
1114.38
671.407
224.268
140.936
422.345
702.374
980.12
1254.7
1525.28
1791.03
2051.19
2305
2551.77
2790.81
3021.46
3243.07
3454.99
3656.58
3847.19
4026.16
4192.82
4346.47
4486.41
4611.92
4722.28
4816.76
4894.62
4955.16
4997.66
5021.47
5025.95
5010.52
4974.67
4917.94
4839.97
4740.52
4619.43
4476.66
4312.33
4126.67
3920.09
3693.15
3446.58
3181.27
2898.3
2598.93
2284.58
1956.85
1617.49
1268.4
911.598
549.213
183.449
109.414
327.891
545.321
761.018
974.31
1184.55
1391.11
1593.4
1790.84
1982.86
2168.95
2348.58
2521.22
2686.38
2843.55
2992.19
3131.8
3261.84
3381.76
3491.01
3589.01
3675.2
3749.01
3809.85
3857.18
3890.43
3909.09
3912.67
3900.7
3872.79
3828.59
3767.83
3690.31
3595.91
3484.63
3356.53
3211.84
3050.86
2874.04
2681.95
2475.32
2254.97
2021.9
1777.21
1522.16
1258.11
986.531
708.992
427.137
142.671
78.0508
233.907
389.028
542.933
695.149
845.219
992.701
1137.17
1278.21
1415.43
1548.44
1676.87
1800.34
1918.49
2030.95
2137.34
2237.28
2330.39
2416.27
2494.51
2564.72
2626.48
2679.37
2722.98
2756.92
2780.77
2794.17
2796.77
2788.24
2768.3
2736.69
2693.22
2637.76
2570.22
2490.59
2398.95
2295.43
2180.28
2053.81
1916.44
1768.69
1611.15
1444.55
1269.67
1087.4
898.729
704.701
506.434
305.098
101.907
46.7928
140.233
233.237
325.52
416.8
506.806
595.274
681.948
766.582
848.938
928.784
1005.89
1080.04
1151
1218.56
1282.48
1342.53
1398.49
1450.1
1497.14
1539.35
1576.48
1608.28
1634.51
1654.92
1669.27
1677.34
1678.92
1673.81
1661.83
1642.85
1616.74
1583.42
1542.85
1495.02
1439.97
1377.79
1308.63
1232.68
1150.19
1061.47
966.889
866.871
761.897
652.503
539.273
422.837
303.866
183.06
61.1439
15.5944
46.7351
77.7313
108.488
138.913
168.914
198.405
227.3
255.518
282.978
309.605
335.32
360.051
383.721
406.255
427.579
447.614
466.283
483.505
499.199
513.282
525.671
536.283
545.034
551.843
556.631
559.323
559.847
558.138
554.14
547.804
539.09
527.97
514.431
498.471
480.104
459.36
436.288
410.953
383.44
353.851
322.311
288.96
253.959
217.488
179.742
140.93
101.275
61.0107
20.378
-15.5846
-46.7055
-77.6823
-108.42
-138.826
-168.81
-198.284
-227.164
-255.366
-282.812
-309.425
-335.127
-359.845
-383.503
-406.028
-427.342
-447.369
-466.032
-483.249
-498.94
-513.022
-525.412
-536.027
-544.783
-551.6
-556.398
-559.101
-559.64
-557.948
-553.967
-547.65
-538.957
-527.86
-514.343
-498.406
-480.062
-459.342
-436.291
-410.976
-383.481
-353.907
-322.379
-289.037
-254.041
-217.57
-179.819
-140.996
-101.327
-61.0438
-20.3894
-46.7831
-140.203
-233.189
-325.452
-416.715
-506.704
-595.155
-681.813
-766.432
-848.774
-928.606
-1005.7
-1079.84
-1150.79
-1218.33
-1282.24
-1342.29
-1398.24
-1449.85
-1496.88
-1539.09
-1576.22
-1608.03
-1634.26
-1654.68
-1669.04
-1677.12
-1678.71
-1673.62
-1661.66
-1642.7
-1616.61
-1583.31
-1542.76
-1494.95
-1439.93
-1377.77
-1308.63
-1232.7
-1150.23
-1061.53
-966.957
-866.948
-761.978
-652.584
-539.349
-422.904
-303.918
-183.093
-61.1552
-78.0413
-233.878
-388.981
-542.867
-695.065
-845.118
-992.584
-1137.03
-1278.06
-1415.27
-1548.26
-1676.68
-1800.14
-1918.28
-2030.73
-2137.11
-2237.04
-2330.14
-2416.02
-2494.26
-2564.47
-2626.23
-2679.12
-2722.74
-2756.68
-2780.54
-2793.96
-2796.57
-2788.06
-2768.13
-2736.54
-2693.09
-2637.65
-2570.13
-2490.53
-2398.91
-2295.42
-2180.28
-2053.83
-1916.48
-1768.74
-1611.22
-1444.62
-1269.74
-1087.48
-898.804
-704.766
-506.484
-305.131
-101.918
-109.405
-327.863
-545.275
-760.953
-974.229
-1184.45
-1391
-1593.27
-1790.69
-1982.71
-2168.78
-2348.39
-2521.03
-2686.18
-2843.33
-2991.97
-3131.57
-3261.6
-3381.52
-3490.76
-3588.77
-3674.96
-3748.77
-3809.62
-3856.95
-3890.21
-3908.88
-3912.47
-3900.52
-3872.62
-3828.45
-3767.71
-3690.2
-3595.83
-3484.56
-3356.49
-3211.82
-3050.86
-2874.06
-2681.99
-2475.37
-2255.03
-2021.97
-1777.29
-1522.24
-1258.18
-986.594
-709.041
-427.168
-142.681
-140.927
-422.318
-702.33
-980.059
-1254.63
-1525.19
-1790.92
-2051.06
-2304.87
-2551.62
-2790.65
-3021.29
-3242.88
-3454.79
-3656.37
-3846.98
-4025.94
-4192.59
-4346.23
-4486.17
-4611.68
-4722.04
-4816.52
-4894.39
-4954.93
-4997.45
-5021.27
-5025.76
-5010.35
-4974.5
-4917.79
-4839.85
-4740.42
-4619.34
-4476.6
-4312.28
-4126.65
-3920.09
-3693.17
-3446.62
-3181.32
-2898.37
-2599
-2284.66
-1956.92
-1617.56
-1268.46
-911.645
-549.243
-183.459
-172.675
-517.441
-860.466
-1200.61
-1536.78
-1867.91
-2193
-2511.08
-2821.27
-3122.68
-3414.51
-3695.95
-3966.23
-4224.58
-4470.23
-4702.42
-4920.34
-5123.2
-5310.18
-5480.42
-5633.07
-5767.25
-5882.09
-5976.7
-6050.22
-6101.81
-6130.64
-6135.96
-6117.05
-6073.28
-6004.11
-5909.08
-5787.88
-5640.32
-5466.34
-5266.05
-5039.74
-4787.89
-4511.15
-4210.39
-3886.69
-3541.35
-3175.89
-2792.04
-2391.73
-1977.12
-1550.52
-1114.42
-671.436
-224.278
-204.734
-613.483
-1020.09
-1423.16
-1821.35
-2213.39
-2598.05
-2974.2
-3340.78
-3696.76
-4041.2
-4373.18
-4691.81
-4996.21
-5285.49
-5558.78
-5815.18
-6053.75
-6273.56
-6473.63
-6652.96
-6810.54
-6945.36
-7056.38
-7142.61
-7203.04
-7236.73
-7242.77
-7220.33
-7168.66
-7087.12
-6975.17
-6832.42
-6658.62
-6453.7
-6217.78
-5951.16
-5654.37
-5328.18
-4973.56
-4591.78
-4184.34
-3753.01
-3299.81
-2827.03
-2337.2
-1833.07
-1317.59
-793.883
-265.185
-237.212
-710.767
-1181.73
-1648.41
-2109.21
-2562.6
-3007.15
-3441.55
-3864.55
-4275.02
-4671.86
-5054.07
-5420.64
-5770.6
-6102.99
-6416.82
-6711.1
-6984.8
-7236.85
-7466.17
-7671.64
-7852.13
-8006.48
-8133.52
-8232.12
-8301.14
-8339.49
-8346.15
-8320.15
-8260.63
-8166.84
-8038.16
-7874.11
-7674.4
-7438.91
-7167.75
-6861.25
-6519.97
-6144.75
-5736.7
-5297.21
-4827.98
-4331.01
-3808.63
-3263.43
-2698.35
-2116.56
-1521.5
-916.799
-306.253
-270.255
-809.717
-1346.06
-1877.28
-2401.46
-2916.81
-3421.69
-3914.58
-4394.09
-4858.94
-5307.95
-5740.02
-6154.06
-6549.04
-6923.91
-7277.62
-7609.09
-7917.21
-8200.82
-8458.74
-8689.73
-8892.54
-9065.9
-9208.51
-9319.11
-9396.42
-9439.23
-9446.39
-9416.8
-9349.49
-9243.6
-9098.41
-8913.38
-8688.13
-8422.52
-8116.61
-7770.74
-7385.49
-6961.76
-6500.74
-6003.95
-5473.27
-4910.92
-4319.46
-3701.85
-3061.38
-2401.68
-1726.66
-1040.5
-347.59
-304.049
-910.89
-1513.99
-2110.97
-2699.56
-3277.7
-3843.48
-4395.2
-4931.34
-5450.5
-5951.41
-6432.92
-6893.89
-7333.23
-7749.87
-8142.69
-8510.56
-8852.3
-9166.68
-9452.43
-9708.22
-9932.71
-10124.5
-10282.2
-10404.3
-10489.6
-10536.7
-10544.2
-10511
-10436
-10318.2
-10156.8
-9951.11
-9700.78
-9405.55
-9065.46
-8680.81
-8252.2
-7780.54
-7267.09
-6713.48
-6121.71
-5494.19
-4833.75
-4143.62
-3427.48
-2689.39
-1933.8
-1165.45
-389.352
-338.847
-1015.03
-1686.72
-2351.08
-3005.45
-3647.44
-4274.89
-4885.91
-5478.85
-6052.24
-6604.76
-7135.23
-7642.49
-8125.45
-8583.02
-9014.07
-9417.42
-9791.87
-10136.1
-10448.9
-10728.7
-10974.1
-11183.6
-11355.8
-11489.1
-11582
-11633
-11640.8
-11603.9
-11521.3
-11391.8
-11214.5
-10988.7
-10713.8
-10389.6
-10016
-9593.25
-9121.98
-8603.07
-8037.82
-7427.9
-6775.42
-6082.94
-5353.49
-4590.61
-3798.31
-2981.1
-2143.98
-1292.3
-431.76
-374.988
-1123.13
-1865.85
-2599.74
-3321.69
-4028.92
-4719.03
-5389.96
-6039.95
-6667.5
-7271.3
-7850.15
-8402.98
-8928.7
-9426.25
-9894.51
-10332.3
-10738.4
-11111.6
-11450.3
-11753.2
-12018.7
-12245.3
-12431.4
-12575.3
-12675.4
-12730.1
-12738
-12697.6
-12607.5
-12466.6
-12273.8
-12028.3
-11729.5
-11377
-10970.6
-10510.6
-9997.48
-9432.11
-8815.76
-8150.11
-7437.32
-6680.05
-5881.49
-5045.41
-4176.17
-3278.74
-2358.65
-1421.96
-475.123
-412.935
-1236.56
-2053.56
-2859.83
-3651.71
-4426.01
-5180.06
-5911.66
-6619.02
-7300.65
-7955.31
-8581.91
-9179.44
-9746.92
-10283.4
-10787.7
-11258.8
-11695.4
-12096.3
-12460
-12785
-13069.7
-13312.6
-13511.8
-13665.7
-13772.6
-13830.9
-13838.7
-13794.7
-13697.4
-13545.4
-13337.6
-13073
-12751
-12371
-11932.7
-11436.4
-10882.4
-10271.5
-9604.8
-8884.08
-8111.41
-7289.48
-6421.57
-5511.62
-4564.3
-3585.01
-2579.87
-1555.71
-519.88
-453.334
-1357.21
-2252.86
-3135.3
-4000.19
-4843.89
-5663.49
-6456.72
-7221.82
-7957.44
-8662.48
-9336.03
-9977.26
-10585.3
-11159.4
-11698.5
-12201.5
-12667.4
-13094.7
-13482.2
-13828.2
-14131.2
-14389.4
-14601.1
-14764.5
-14877.8
-14939.2
-14946.9
-14899.4
-14795
-14632.2
-14410
-14127.1
-13782.6
-13376.1
-12907.1
-12375.5
-11781.7
-11126.2
-10410.2
-9635.21
-8803.13
-7916.63
-6978.97
-5994.18
-4967.15
-3903.68
-2810.53
-1695.37
-566.65
-497.1
-1487.74
-2467.97
-3431.64
-4373.56
-5289.65
-6176.81
-7032.8
-7856.06
-8645.49
-9400.29
-10119.8
-10803.6
-11450.9
-12061.1
-12633.5
-13167
-13660.6
-14113
-14523
-14888.8
-15208.9
-15481.6
-15704.9
-15877.2
-15996.4
-16060.6
-16068.2
-16017.2
-15906
-15733
-15496.9
-15196.4
-14830.6
-14398.6
-13900
-13334.4
-12702.1
-12003.5
-11239.3
-10410.8
-9519.88
-8568.88
-7560.92
-6499.96
-5390.98
-4240.11
-3054.74
-1843.55
-616.328
-545.569
-1632.04
-2704.97
-3756.63
-4780.86
-5773.11
-6730.25
-7650.31
-8532.12
-9375.06
-10178.8
-10943.2
-11668
-12352.9
-12997.7
-13601.6
-14163.9
-14683.6
-15159.6
-15590.6
-15974.9
-16311
-16597.1
-16831.3
-17011.7
-17136.3
-17203.2
-17210.5
-17156.1
-17038.5
-16855.8
-16606.6
-16289.5
-15903.3
-15447.2
-14920.3
-14322.3
-13653
-12912.6
-12101.6
-11220.8
-10271.8
-9256.39
-8177.43
-7038.57
-5844.63
-4601.94
-3318.47
-2004.06
-670.229
-600.749
-1795.9
-2972.8
-4121.6
-5234.98
-6308.08
-7338.08
-8323.6
-9264.24
-10160.1
-11011.7
-11819.4
-12583.5
-13304.3
-13981.6
-14615.1
-15204.4
-15748.4
-16246.3
-16696.7
-17098.2
-17449
-17747.4
-17991.6
-18179.4
-18309
-18378.2
-18385.1
-18327.6
-18203.8
-18012
-17750.6
-17417.9
-17012.7
-16533.8
-15980.4
-15351.6
-14647.2
-13866.8
-13010.6
-12079
-11072.8
-9993.27
-8842.56
-7623.65
-6340.87
-5000.37
-3610.59
-2182.64
-730.345
-665.787
-1988.27
-3285.09
-4543.43
-5754.79
-6914.47
-8020.53
-9072.85
-10072.3
-11020.3
-11918.1
-12767.2
-13568.6
-14322.9
-15030.5
-15691.5
-16305.6
-16872
-17389.9
-17858.1
-18275.1
-18639.3
-18948.9
-19202
-19396.6
-19530.6
-19601.9
-19608.3
-19547.9
-19418.5
-19218.3
-18945.5
-18598.4
-18175.6
-17675.7
-17097.5
-16440.1
-15702.7
-14884.5
-13985.3
-13004.6
-11942.6
-10799.5
-9576.36
-8274.94
-6898.43
-5452.2
-3944.66
-2388.22
-799.807
-745.877
-2223.72
-3663.4
-5048.14
-6368.71
-7621.63
-8807.06
-9927.15
-10984.9
-11983.3
-12925.4
-13813.5
-14649.4
-15434.7
-16170.2
-16856.2
-17492.7
-18079.3
-18615.2
-19099.3
-19530.2
-19906.4
-20226
-20487.1
-20687.7
-20825.6
-20898.6
-20904.6
-20841.4
-20706.9
-20499.1
-20216
-19855.9
-19417.1
-18898.1
-18297.3
-17613.6
-16845.6
-15992.4
-15052.7
-14025.4
-12909.5
-11704
-10408.1
-9021.67
-7545.62
-5983.34
-4342.15
-2635.3
-883.794
-850.194
-2527.21
-4143.44
-5677.41
-7120.97
-8474.35
-9742.02
-10930
-12044.5
-13091.1
-14074.4
-14998.4
-15865.9
-16679
-17439.3
-18147.6
-18804
-19408.4
-19960.1
-20458.2
-20901.3
-21287.9
-21616.2
-21884.2
-22090
-22231.2
-22305.8
-22311.3
-22245.7
-22106.6
-21892.1
-21600
-21228.3
-20775.3
-20239.2
-19618.3
-18911
-18115.6
-17230.4
-16253.5
-15182.9
-14016.1
-12750.2
-11382.1
-9908.51
-8326.55
-6635.4
-4838.72
-2948.81
-991.472
-996.556
-2944.8
-4787.76
-6501.11
-8083.45
-9544
-10895.3
-12149.7
-13318
-14409
-15429.7
-16385.7
-17281
-18118.5
-18900.4
-19627.7
-20301.2
-20920.8
-21486
-21995.9
-22449.4
-22844.8
-23180.5
-23454.4
-23664.5
-23808.6
-23884.3
-23889.5
-23821.7
-23678.8
-23458.4
-23158.6
-22777
-22311.9
-21761.1
-21122.8
-20395
-19575.5
-18662.2
-17652.2
-16542.5
-15328.8
-14006.2
-12568.1
-11006.7
-9313.04
-7478.18
-5496.89
-3374.8
-1140.65
-1224.3
-3569.16
-5713.41
-7643.41
-9379.83
-10951.3
-12384.5
-13701.1
-14918
-16048.2
-17101.3
-18084.5
-19003.2
-19861
-20660.7
-21403.9
-22091.4
-22723.4
-23299.5
-23819.1
-24281
-24683.6
-25025.2
-25303.9
-25517.5
-25663.8
-25740.5
-25745.3
-25675.8
-25529.7
-25304.6
-24998.4
-24608.7
-24133.6
-23570.7
-22918
-22173.2
-21333.7
-20396.7
-19358.7
-18215.2
-16960.4
-15586.7
-14083.5
-12437
-10628.7
-8635.8
-6433.66
-4005.9
-1370.65
-1636.35
-4606.52
-7156.69
-9341.44
-11240.3
-12919.4
-14427.1
-15797.6
-17055.4
-18217.5
-19296.6
-20301.3
-21238.3
-22111.9
-22925.4
-23680.6
-24378.8
-25020.3
-25604.9
-26131.8
-26600
-27008
-27354.1
-27636.4
-27852.7
-28000.7
-28078.1
-28082.6
-28011.8
-27863.2
-27634.5
-27323.4
-26927.6
-26444.8
-25872.7
-25208.9
-24451
-23595.9
-22640.4
-21580.2
-20409.7
-19121.5
-17705.1
-16145.8
-14422.3
-12503.7
-10345.4
-7885.3
-5048.33
-1784.4
-2561.67
-6566.46
-9637.79
-12093.1
-14142.6
-15912.3
-17478.7
-18890
-20177.5
-21362.5
-22459.8
-23479.5
-24429
-25313.4
-26136.3
-26899.8
-27605.2
-28253.1
-28843.3
-29375.2
-29847.7
-30259.3
-30608.5
-30893.1
-31111.2
-31260.3
-31338.3
-31342.6
-31270.8
-31120.6
-30889.4
-30575
-30175
-29687
-29108.6
-28437.4
-27670.4
-26804.8
-25836.5
-24760.9
-23571.6
-22259.5
-20812.1
-19210.7
-17426.8
-15415.7
-13104.8
-10372
-7011.66
-2710.86
-5285.89
-10828.6
-14417.2
-17081
-19229.6
-21053.5
-22653.1
-24086.5
-25389.8
-26586.8
-27693.4
-28720.8
-29676.7
-30566.6
-31394.2
-32161.9
-32871
-33522.1
-34115.1
-34649.5
-35124.1
-35537.6
-35888.3
-36174.2
-36393.1
-36542.8
-36621
-36625.2
-36553
-36401.9
-36169.5
-35853.5
-35451.3
-34960.7
-34379.1
-33704.1
-32932.6
-32061.6
-31086.8
-30003.3
-28804.2
-27479.7
-26015.9
-24391.6
-22573.8
-20507.5
-18096.5
-15154.2
-11275.5
-5435.65
2569.77
6589.89
9675.34
12143.7
14205.2
15986.2
17563.1
18984.1
20280.9
21474.5
22579.7
23606.9
24563.4
25454.3
26283.2
27052.2
27762.7
28415.2
29009.6
29545.2
30021
30435.6
30787.1
31073.7
31293.2
31443.4
31521.8
31526.1
31453.7
31302.4
31069.5
30752.8
30349.9
29858.3
29275.7
28599.5
27827
26955
25979.7
24896.2
23698.2
22376.7
20919.1
19306.6
17510.8
15486.9
13162.1
10414.5
7038.1
2719.96
1887.99
5214.37
7979.24
10291.9
12270.7
14003.4
15549.5
16949.6
18231
19413
20509
21528.6
22478.7
23364.2
24188.3
24953.1
25660
26309.3
26900.8
27434
27907.6
28320.3
28670.4
28955.7
29174.4
29323.9
29402.1
29406.5
29334.6
29184.1
28952.5
28637.4
28236.6
27747.6
27168.2
26495.8
25727.8
24861.2
23892.3
22816.7
21628.3
20319
18877.2
17286.5
15522.2
13547.5
11306.5
8715.6
5660.88
2037.62
1429.5
4114.73
6500.67
8594.46
10442.7
12093
13584.2
14945.4
16198
17357.6
18435.7
19440.5
20378.1
21252.8
22067.6
22824.2
23523.8
24166.7
24752.6
25280.8
25750.2
26159.2
26506.2
26789.2
27006
27154.5
27232.2
27236.7
27165.8
27016.9
26787.7
26476
26079.3
25595.5
25022.4
24357.5
23598.4
22742.4
21786.2
20725.8
19556
18270
16858.3
15307.9
13600.3
11709.7
9601.31
7231.42
4557.84
1577.99
1146.42
3364.5
5422.13
7297.08
8999.51
10550.3
11971
13280.3
14493.3
15621.5
16674
17657.5
18576.9
19435.9
20236.9
20981.5
21670.4
22303.8
22881.3
23402.2
23865.1
24268.7
24611.2
24890.6
25104.8
25251.5
25328.5
25333.3
25263.7
25117.3
24891.7
24584.8
24194.4
23718.3
23154.4
22500.5
21754.6
20914
19976.2
18937.8
17794.6
16541.4
15171.3
13674.9
12040.2
10252
8292.34
6144.46
3802.51
1293.19
962.054
2849.17
4645.47
6326.03
7886.42
9332.79
10675.2
11924.4
13089.8
14179.5
15200
16156.5
17052.7
17891.4
18674.6
19403.4
20078.3
20699.3
21265.8
21777
22231.6
22628
22964.5
23239.2
23449.8
23594.3
23670.3
23675.5
23607.6
23464.4
23243.6
22943
22560.7
22094.6
21542.7
20903.3
20174.2
19353.7
18439.4
17428.8
16319
15106.3
13786.1
12352.8
10799.7
9119.52
7305.89
5356.63
3280.41
1106.56
833.112
2478.57
4068.98
5583.51
7013.29
8357.38
9619.1
10803.6
11916.2
12962.1
13945.6
14870.3
15738.9
16553.3
17315
18024.6
18682.5
19288.2
19841.3
20340.5
20784.8
21172.3
21501.5
21770.3
21976.6
22118.2
22193
22198.6
22132.8
21993.5
21778.4
21485.7
21113.2
20659.3
20122.1
19500
18791.5
17994.8
17108.5
16130.8
15059.8
13893.3
12628.9
11263.8
9795.57
8222.27
6544.2
4766.22
2901.36
974.788
736.85
2197.66
3622.82
4996.14
6308.31
7555.42
8737.14
9855.11
10911.9
11910.3
12852.8
13741.8
14578.9
15365.5
16102.4
16789.8
17427.7
18015.7
18552.9
19038.1
19470.2
19847.3
20167.7
20429.5
20630.6
20768.9
20842.2
20848.2
20784.9
20650.1
20441.8
20158.1
19797.2
19357.5
18837.3
18235.4
17550.4
16781.2
15926.7
14986
13958
12841.9
11636.9
10342.7
8959.37
7488.5
5933.96
4303.46
2610.39
875.152
660.895
1974.06
3262.74
4514.53
5721
6877.31
7981.29
9032.57
10031.8
10980.1
11878.7
12728.9
13531.5
14287.1
14996.2
15658.6
16274.1
16841.8
17361
17830.3
18248.4
18613.5
18924
19177.8
19372.9
19507.2
19578.7
19585.2
19524.6
19394.9
19194.3
18920.9
18573
18149.3
17648.3
17068.9
16410.2
15671.5
14852
13951.6
12969.9
11907.2
10764
9541.43
8241.54
6867.81
5425.82
3924.13
2375.11
795.285
598.139
1788.29
2960.81
4106.07
5216.84
6288.25
7317.34
8302.62
9243.55
10140.1
10992.7
11801.6
12567
13289.2
13967.9
14602.8
15193.4
15738.8
16237.9
16689.4
17091.9
17443.6
17742.8
17987.6
18176
18305.9
18375.3
18382.2
18324.6
18200.6
18008.4
17746.3
17412.8
17006.7
16526.8
15972.1
15342.1
14636.3
13854.6
12997.1
12064.2
11057
9976.87
8825.95
7607.42
6325.77
4987.26
3600.35
2176.1
728.09
544.283
1628.3
2699.1
3749.1
4772.21
5763.87
6720.93
7641.32
8523.81
9367.69
10172.6
10938.2
11664.4
12350.7
12996.9
13602.1
14165.8
14686.8
15164
15596
15981.3
16318.3
16605.1
16840
17020.8
17145.8
17212.9
17220.2
17165.7
17047.8
16864.7
16614.9
16297
15910
15452.8
14924.7
14325.5
13654.8
12913
12100.6
11218.5
10268.2
9251.76
8172.04
7032.77
5838.88
4596.71
3314.27
2001.33
669.281
496.603
1486.32
2465.8
3428.98
4370.74
5286.98
6174.59
7031.31
7855.51
8646.05
9402.09
10123
10808.1
11456.8
12068.4
12642
13176.8
13671.7
14125.3
14536.2
14903
15223.9
15497.3
15721.3
15894
16013.5
16077.9
16085.5
16034.4
15922.9
15749.6
15512.9
15211.7
14845
14412
13912.2
13345.4
12711.8
12011.7
11246
10416.1
9523.82
8571.54
7562.44
6500.55
5390.9
4239.63
3054.14
1843.08
616.151
453.312
1357.18
2252.93
3135.62
4000.94
4845.27
5665.68
6459.88
7226.09
7962.92
8669.26
9344.15
9986.73
10596.2
11171.5
11711.9
12216.2
12683.2
13111.6
13500.1
13847
14150.8
14409.6
14621.9
14785.7
14899.3
14960.9
14968.7
14921
14816.4
14653.2
14430.4
14146.8
13801.6
13394
12923.9
12391.1
11796
11139.2
10421.7
9645.2
8811.65
7923.7
6984.68
5998.64
4970.49
3906.05
2812.09
1696.24
566.93
413.197
1237.37
2054.97
2861.94
3654.61
4429.82
5184.89
5917.62
6626.18
7309.07
7965.03
8592.95
9191.8
9760.59
10298.3
10803.8
11276.1
11713.8
12115.7
12480.4
12806.2
13091.7
13335.2
13534.9
13689.3
13796.5
13854.9
13862.8
13818.6
13721
13568.7
13360.3
13095.1
12772.3
12391.4
11952.1
11454.6
10899.3
10287
9618.93
8896.72
8122.54
7299.1
6429.7
5518.31
4569.62
3589.03
2582.67
1557.36
520.423
375.411
1124.41
1868.02
2602.86
3325.81
4034.11
4725.36
5397.48
6048.7
6677.51
7282.58
7862.72
8416.81
8943.77
9442.52
9911.94
10350.9
10758
11132.1
11471.7
11775.4
12041.6
12268.8
12455.4
12599.6
12700
12754.9
12762.8
12722.3
12632
12490.7
12297.4
12051.3
11751.8
11398.4
10991
10529.9
10015.5
9448.87
8831.13
8164.04
7449.76
6690.96
5890.88
5053.27
4182.54
3283.64
2362.12
1424.02
475.807
339.353
1016.55
1689.28
2354.71
3010.18
3653.3
4281.92
4894.14
5488.29
6062.91
6616.66
7148.34
7656.81
8140.94
8599.64
9031.76
9436.14
9811.55
10156.7
10470.2
10750.8
10996.8
11206.9
11379.6
11513.2
11606.3
11657.5
11665.3
11628.4
11545.5
11415.7
11238
11011.6
10736
10410.9
10036.4
9612.61
9140.19
8620.05
8053.48
7442.18
6788.26
6094.3
5363.34
4598.92
3805.09
2986.36
2147.72
1294.54
432.505
304.585
912.503
1516.69
2114.77
2704.48
3283.75
3850.69
4403.57
4940.87
5461.2
5963.27
6445.92
6908
7348.43
7766.11
8159.93
8528.74
8871.36
9186.57
9473.06
9729.53
9954.61
10146.9
10305
10427.5
10513
10560.2
10567.7
10534.4
10459.2
10341.1
10179.3
9973.07
9722.09
9426.11
9085.15
8699.54
8269.86
7797.06
7282.38
6727.47
6134.34
5505.4
4843.51
4151.9
3434.27
2694.68
1937.57
1167.71
390.105
270.787
811.315
1348.73
1881.02
2406.29
2922.73
3428.71
3922.69
4403.29
4869.23
5319.31
5752.42
6167.49
6563.46
6939.28
7293.9
7626.23
7935.15
8219.5
8478.1
8709.7
8913.05
9086.86
9229.86
9340.74
9418.26
9461.18
9468.35
9438.68
9371.19
9265.01
9119.44
8933.92
8708.08
8441.78
8135.08
7788.33
7402.11
6977.32
6515.17
6017.18
5485.24
4921.57
4328.76
3709.77
3067.88
2406.74
1730.28
1042.68
348.316
237.716
712.279
1184.25
1651.94
2113.75
2568.16
3013.72
3449.12
3873.12
4284.57
4682.39
5065.54
5433.03
5783.89
6117.13
6431.77
6726.82
7001.23
7253.95
7483.87
7689.89
7870.86
8025.61
8152.99
8251.85
8321.05
8359.5
8366.17
8340.09
8280.41
8186.36
8057.33
7892.84
7692.6
7456.5
7184.63
6877.34
6535.18
6159.01
5749.94
5309.36
4838.99
4340.83
3817.21
3270.74
2704.36
2121.26
1524.86
918.819
306.926
205.193
614.86
1022.39
1426.37
1825.48
2218.43
2604
2981.05
3348.51
3705.37
4050.67
4383.49
4702.93
5008.1
5298.14
5572.14
5829.21
6068.42
6288.8
6489.4
6669.21
6827.21
6962.38
7073.7
7160.15
7220.74
7254.51
7260.56
7238.05
7186.24
7104.47
6992.21
6849.07
6674.81
6469.35
6232.8
5965.48
5667.92
5340.88
4985.37
4602.63
4194.18
3761.78
3307.49
2833.58
2342.59
1837.28
1320.61
795.695
265.789
173.078
518.651
862.481
1203.43
1540.4
1872.32
2198.2
2517.07
2828.02
3130.19
3422.75
3704.91
3975.89
4234.91
4481.21
4714
4932.5
5135.9
5323.37
5494.06
5647.12
5781.66
5896.8
5991.66
6065.38
6117.09
6146
6151.32
6132.35
6088.45
6019.08
5923.79
5802.26
5654.29
5479.83
5279.01
5052.11
4799.59
4522.12
4220.59
3896.06
3549.85
3183.48
2798.68
2397.4
1981.78
1554.17
1117.03
673.006
224.802
141.267
423.338
704.027
982.431
1257.67
1528.9
1795.29
2056.08
2310.53
2557.91
2797.55
3028.79
3250.96
3463.43
3665.54
3856.65
4036.09
4203.18
4357.23
4497.54
4623.39
4734.04
4828.77
4906.84
4967.54
5010.16
5034.04
5038.53
5023.06
4987.11
4930.24
4852.07
4752.36
4630.95
4487.81
4323.05
4136.92
3929.81
3702.29
3455.09
3189.11
2905.43
2605.3
2290.17
1961.63
1621.43
1271.49
913.814
550.547
183.894
109.676
328.676
546.628
762.845
976.654
1187.41
1394.48
1597.27
1795.19
1987.71