/*--------------------------------*- C++ -*----------------------------------*\
| =========                 |                                                 |
| \\      /  F ield         | OpenFOAM: The Open Source CFD Toolbox           |
|  \\    /   O peration     | Version:  5.x                                   |
|   \\  /    A nd           | Web:      www.OpenFOAM.org                      |
|    \\/     M anipulation  |                                                 |
\*---------------------------------------------------------------------------*/
FoamFile
{
    version     2.0;
    format      ascii;
    class       volScalarField;
    location    "1.5";
    object      gradTx;
}
// * * * * * * * * * * * * * * * * * * * * * * * * * * * * * * * * * * * * * //

dimensions      [0 -1 0 1 0 0 0];

internalField   nonuniform List<scalar> 
25000
(
5286.08
2562.65
1638.92
1229.22
1004.54
861.897
761.895
686.635
626.851
577.25
534.579
496.715
462.203
430.007
399.357
369.666
340.474
311.413
282.185
252.543
222.286
191.249
159.299
126.33
92.261
57.0346
20.6122
-17.0272
-55.8907
-95.9749
-137.271
-179.769
-223.469
-268.389
-314.576
-362.132
-411.236
-462.182
-515.444
-571.765
-632.307
-698.911
-774.563
-864.305
-977.175
-1130.86
-1364.61
-1781.23
-2709.64
-5435.42
10828.3
6568.6
4613.43
3583.11
2967.93
2561.51
2270.97
2050.02
1873.41
1726.3
1599.4
1486.58
1383.6
1287.44
1195.83
1107.03
1019.69
932.716
845.217
756.464
665.858
572.906
477.213
378.463
276.416
170.9
61.8018
-50.941
-167.348
-287.406
-411.087
-538.36
-669.219
-803.711
-941.974
-1084.3
-1231.2
-1383.54
-1542.69
-1710.81
-1891.26
-2089.31
-2313.47
-2577.81
-2906.91
-3346.43
-3988.75
-5039.81
-7009
-11275.8
14414.1
9638.71
7165.54
5733.99
4823.66
4197.96
3739.51
3385.36
3099.35
2859.44
2651.47
2465.91
2296.11
2137.22
1985.64
1838.55
1693.76
1549.48
1404.26
1256.91
1106.44
952.053
793.086
629.025
459.478
284.16
102.889
-84.4334
-277.835
-477.289
-682.74
-894.127
-1111.43
-1334.7
-1564.15
-1800.22
-2043.72
-2296
-2559.2
-2836.69
-3133.68
-3458.28
-3823.33
-4249.61
-4772.15
-5452.9
-6408.35
-7874.38
-10370.8
-15158
17071.1
12088.9
9348.28
7666.68
6545.83
5748.19
5149.16
4678.29
4293.28
3967.44
3683.13
3428.23
3194.14
2974.5
2764.52
2560.45
2359.33
2158.74
1956.71
1751.6
1542.08
1327.04
1105.57
876.981
640.721
396.409
143.799
-117.238
-386.728
-664.623
-950.828
-1245.24
-1547.8
-1858.56
-2177.75
-2505.93
-2844.1
-3193.99
-3558.34
-3941.45
-4349.91
-4793.87
-5289.11
-5860.58
-6549.01
-7423.4
-8607.19
-10336.9
-13110
-18108.6
19207.5
14127.8
11239.7
9400.36
8131.55
7202.6
6489.23
5918.84
5446.41
5042.66
4687.74
4367.74
4072.59
3794.75
3528.45
3269.15
3013.2
2757.65
2500.04
2238.34
1970.87
1696.25
1413.36
1121.31
819.429
507.242
184.446
-149.105
-493.43
-848.445
-1214.01
-1589.95
-1976.16
-2372.64
-2779.61
-3197.67
-3627.95
-4072.4
-4534.18
-5018.18
-5531.91
-6086.76
-6700.19
-7399.26
-8226.98
-9254.12
-10603.4
-12504.3
-15433.9
-20534.6
21012.4
15880
12904.6
10962.3
9588.67
8560.01
7754.83
7100.91
6552.5
6079.16
5659.83
5279.45
4926.94
4593.88
4273.72
3961.28
3652.36
3343.5
3031.84
2714.99
2390.96
2058.13
1715.16
1361.02
994.898
616.252
224.734
-179.812
-597.384
-1027.85
-1471.01
-1926.6
-2394.44
-2874.44
-3366.78
-3872.01
-4391.31
-4926.72
-5481.58
-6061.13
-6673.32
-7330.16
-8049.81
-8860.01
-9804.05
-10952
-12423.4
-14440.3
-17466.3
-22624.1
22584.9
17421
14389.9
12377.9
10928.5
9823.62
8944.86
8221.29
7607.42
7072.53
6595.02
6159.18
5753.26
5368.22
4996.96
4633.77
4273.99
3913.74
3549.82
3179.52
2800.59
2411.16
2009.74
1595.13
1166.44
723.035
264.554
-209.163
-698.079
-1202
-1720.64
-2253.66
-2800.74
-3361.69
-3936.57
-4525.86
-5130.66
-5753
-6396.23
-7065.65
-7769.34
-8519.42
-9334.11
-10241
-11282.6
-12527.3
-14091.3
-16190.9
-19281.2
-24475
23982
18797.5
15729
13667.6
12162.1
10998.3
10060.3
9278.71
8608.67
8019.65
7489.93
7003.48
6548.18
6114.58
5695.15
5283.79
4875.48
4466
4051.83
3630.02
3198.06
2753.91
2295.9
1822.71
1333.37
827.186
303.778
-236.997
-795.055
-1370.13
-1961.84
-2569.72
-3193.31
-3832.29
-4486.57
-5156.47
-5842.94
-6547.89
-7274.55
-8028.09
-8816.43
-9651.51
-10551.2
-11542.4
-12666.6
-13990.3
-15626.9
-17788.4
-20924.6
-26143.2
25239
20040.3
16945
14847.5
13299.5
12089.3
11103.2
10273.1
9554.82
8918.34
8341.96
7809.6
7308.9
6830.18
6365.62
5908.82
5454.46
4998.08
4535.88
4064.69
3581.81
3085.02
2572.51
2042.87
1495.04
928.301
342.265
-263.184
-887.906
-1531.55
-2193.61
-2873.5
-3570.59
-4284.4
-5014.63
-5761.42
-6525.51
-7308.58
-8113.63
-8945.58
-9812.03
-10724.5
-11700.3
-12765.5
-13960.5
-15350
-17045.1
-19254.9
-22426.1
-27663
26378.6
21169.6
18054.7
15929.8
14348.6
13101.4
12075.8
11204.9
10445.2
9767.12
9149.17
8575.28
8033.05
7512.63
7006
6506.57
6008.79
5507.96
5000.11
4481.85
3950.33
3403.19
2838.49
2254.73
1650.81
1025.98
379.859
-287.632
-976.283
-1685.65
-2415.09
-3163.86
-3931.19
-4716.36
-5518.87
-6338.62
-7176.1
-8032.7
-8911.12
-9815.92
-10754.3
-11737.2
-12781.4
-13912
-15168.3
-16613.6
-18357.1
-20606.1
-23804.9
-29056.2
27416.6
22199.7
19069.6
16923.4
15316
14038.7
12980.4
12074.9
11279.6
10565
9910.06
9298.76
8718.67
8159.88
7614.26
7075.04
6536.52
5993.83
5442.83
4879.97
4302.26
3707.21
3092.81
2457.48
1800.07
1119.83
416.391
-310.279
-1059.89
-1831.88
-2625.5
-3439.81
-4273.85
-5126.71
-5997.64
-6886.26
-7792.79
-8718.29
-9665.1
-10637.4
-11641.8
-12688.9
-13794.6
-14983.4
-16293.3
-17786.6
-19571.3
-21852.8
-25074.3
-30337.3
28363.5
23140.5
19998.5
17835.4
16206.6
14904.7
13819
12884.1
12057.9
11311.4
10623.5
9978.57
9364.11
8770.18
8188.58
7612.44
7035.92
6454.03
5862.48
5257.6
4636.29
3995.96
3334.52
2650.34
1942.24
1209.47
451.679
-331.094
-1138.48
-1969.8
-2824.15
-3700.44
-4597.5
-5514.19
-6449.5
-7402.79
-8373.95
-9363.7
-10374
-11408.6
-12473.7
-13579.2
-14740.3
-15980.9
-17338.2
-18873.4
-20693.4
-23002.7
-26243.3
-31516.1
29227.1
23999.2
20847.7
18670.8
17024.6
15702
14593.3
13633.3
12780.3
12005.7
11288.7
10613.5
9967.98
9342.01
8727.39
8117.18
7505.43
6887.05
6257.64
5613.44
4951.25
4268.4
3562.73
2832.58
2076.76
1294.51
485.535
-350.074
-1211.85
-2099.01
-3010.47
-3945
-4901.2
-5877.69
-6873.23
-7886.88
-8918.19
-9967.55
-11036.5
-12128.4
-13249
-14407.5
-15618.8
-16905.8
-18305.1
-19877.1
-21727.9
-24061.1
-27318.2
-32599.3
30013
24781.1
21621.8
19433.5
17772.8
16433
15304.7
14323.1
13446.9
12647.7
11904.8
11202.7
10529.1
9874.09
9229.34
8587.86
7943.66
7291.54
6627.04
5946.3
5246.04
4523.54
3776.6
3003.52
2203.09
1374.59
517.762
-367.24
-1279.85
-2219.16
-3183.96
-4172.8
-5184.1
-6216.26
-7267.76
-8337.36
-9424.32
-10528.7
-11651.6
-12796
-13967.1
-15173.8
-16430.2
-17758.8
-19195.5
-20800.1
-22677.8
-25032
-28303.3
-33591.6
30725.2
25490.1
22324.3
20126.6
18453.7
17099.4
15954.3
14954.2
14057.8
13237
12471.3
11745.2
11046.5
10365.3
9693.21
9023.26
8349.37
7666.31
6969.52
6255.09
5519.68
4760.52
3975.37
3162.51
2320.74
1449.37
548.165
-382.632
-1342.37
-2330
-3344.18
-4383.28
-5445.52
-6529.07
-7632.15
-8753.26
-9891.33
-11046.1
-12218.3
-13410.4
-14627.4
-15877.6
-17174.6
-18540.5
-20010.5
-21643.8
-23545.4
-25917.9
-29201.7
-34496.4
31366.9
26129
22957.9
20752.3
19069.2
17702.5
16543.2
15527.1
14613.2
13773.6
12987.8
12240.4
11519.4
10814.6
10118
9422.27
8721.47
8010.26
7284.03
6538.83
5771.26
4978.51
4158.32
3308.96
2429.25
1518.5
576.547
-396.304
-1399.3
-2431.29
-3490.76
-4575.93
-5684.84
-6815.4
-7965.63
-9133.73
-10318.4
-11518.9
-12735.8
-13971.2
-15229.5
-16518.7
-17852.1
-19251.1
-20750.7
-22409.5
-24332.1
-26720.8
-30015.5
-35315.7
31940.2
26700
23524.4
21312.2
19620.5
18243.3
17071.8
16042.1
15113.1
14257.1
13453.8
12687.7
11946.9
11221.3
10502.7
9783.96
9058.99
8322.44
7569.66
6796.64
5999.96
5176.78
4324.82
3442.35
2528.18
1581.68
602.719
-408.321
-1450.6
-2522.84
-3623.41
-4750.36
-5901.53
-7074.65
-8267.5
-9478.03
-10704.6
-11946.4
-13203.4
-14477.5
-15772.8
-17096.9
-18462.6
-19891
-21416.7
-23098
-25039.1
-27441.8
-30746.1
-36051.1
32446.9
27204.8
24025.5
21807.7
20108.7
18722.8
17540.9
16499.5
15557.6
14687.5
13868.9
13086.6
12328.4
11584.5
10846.6
10107.5
9361.07
8601.99
7825.57
7027.74
6205.07
5354.68
4474.29
3562.16
2617.14
1638.61
626.497
-418.757
-1496.22
-2604.51
-3741.86
-4906.18
-6095.15
-7306.29
-8537.18
-9785.54
-11049.5
-12327.9
-13620.6
-14929
-16257
-17611.8
-19006
-20460.2
-22008.8
-23709.7
-25666.8
-28081.9
-31394.5
-36703.7
32888.2
27644.6
24462.1
22239.7
20534.7
19141.3
17950.8
16899.5
15946.6
15064.5
14232.8
13436.5
12663.4
11903.7
11148.9
10392.1
9626.97
8848.19
8051.04
7231.44
6385.93
5511.61
4606.21
3667.98
2695.78
1689.04
647.712
-427.684
-1536.14
-2676.18
-3845.91
-5043.12
-6265.32
-7509.88
-8774.18
-10055.7
-11352.4
-12662.9
-13986.7
-15325.1
-16681.6
-18063.1
-19482
-20958.6
-22527
-24244.9
-26215.9
-28641.6
-31961.3
-37274.2
33265.1
28020.2
24835.2
22609
20899
19499.5
18301.8
17242.2
16280.2
15387.9
14545.3
13737.2
12951.5
12178.2
11409.2
10637.2
9856.05
9060.39
8245.45
7407.14
6541.98
5647.08
4720.12
3759.4
2763.79
1732.71
666.206
-435.176
-1570.35
-2737.75
-3935.39
-5160.92
-6411.73
-7685.05
-8978.06
-10288.1
-11613
-12950.9
-14301.4
-15665.4
-17046.2
-18450.6
-19890.5
-21386.2
-22971.4
-24703.7
-26686.4
-29121.1
-32446.9
-37762.8
33578.4
28332.4
25145.3
22916.1
21202
19797.6
18594
17527.8
16558.3
15657.7
14806.1
13988.3
13192.1
12407.7
11626.8
10842.2
10047.8
9238.04
8408.26
7554.33
6672.76
5760.63
4815.65
3836.11
2820.88
1769.44
681.84
-441.303
-1598.85
-2789.15
-4010.15
-5259.38
-6534.12
-7831.47
-9148.48
-10482.4
-11830.6
-13191.5
-14564.2
-15949.6
-17350.6
-18773.9
-20231.3
-21742.8
-23341.9
-25086.1
-27078.6
-29520.6
-32851.4
-38169.8
33828.4
28581.6
25393
23161.3
21444.2
20035.8
18827.7
17756.2
16780.8
15873.7
15015
14189.5
13385
12591.7
11801.4
11006.8
10201.7
9380.69
8539.04
7672.59
6777.85
5851.91
4892.47
3897.81
2866.83
1799.03
694.495
-446.126
-1621.64
-2830.34
-4070.08
-5338.34
-6632.28
-7948.91
-9285.16
-10638.1
-12005.2
-13384.4
-14774.9
-16177.3
-17594.5
-19032.9
-20504.2
-22028.3
-23638.5
-25392.1
-27392.3
-29840.3
-33175.1
-38495.4
34015.7
28768.3
25578.5
23345.1
21625.6
20214.4
19002.9
17927.5
16947.7
16035.8
15171.8
14340.5
13529.9
12730
11932.6
11130.5
10317.4
9487.99
8637.42
7761.58
6856.95
5920.63
4950.3
3944.28
2901.46
1821.35
704.073
-449.697
-1638.72
-2861.26
-4115.1
-5397.66
-6706.04
-8037.16
-9387.86
-10755.1
-12136.3
-13529.3
-14933.2
-16348.3
-17777.6
-19227.4
-20709.1
-22242.5
-23861
-25621.7
-27627.7
-30080
-33417.8
-38739.6
34140.4
28892.6
25702
23467.4
21746.4
20333.4
19119.6
18041.7
17059
16144
15276.5
14441.4
13626.6
12822.3
12020.2
11213.1
10394.7
9559.68
8703.16
7821.05
6909.82
5966.56
4988.97
3975.35
2924.62
1836.29
710.498
-452.056
-1650.11
-2881.89
-4145.15
-5437.27
-6755.29
-8096.07
-9456.43
-10833.3
-12223.8
-13626
-15038.8
-16462.4
-17899.8
-19357.1
-20845.7
-22385.4
-24009.4
-25774.8
-27784.6
-30239.9
-33579.6
-38902.4
34202.7
28954.8
25763.7
23528.6
21806.9
20392.8
19178
18098.8
17114.7
16198
15328.8
14491.8
13675
12868.5
12064.1
11254.4
10433.4
9595.57
8736.08
7850.83
6936.29
5989.56
5008.34
3990.91
2936.22
1843.78
713.72
-453.233
-1655.81
-2892.22
-4160.2
-5457.09
-6779.93
-8125.56
-9490.74
-10872.4
-12267.7
-13674.4
-15091.6
-16519.5
-17960.9
-19422
-20914.1
-22456.9
-24083.6
-25851.4
-27863.1
-30319.8
-33660.5
-38983.8
34202.7
28954.8
25763.7
23528.6
21806.9
20392.8
19178
18098.8
17114.7
16198
15328.8
14491.8
13675
12868.5
12064.1
11254.4
10433.4
9595.57
8736.08
7850.83
6936.29
5989.56
5008.33
3990.91
2936.21
1843.77
713.714
-453.241
-1655.82
-2892.23
-4160.21
-5457.1
-6779.94
-8125.57
-9490.76
-10872.4
-12267.7
-13674.5
-15091.6
-16519.5
-17960.9
-19422
-20914.1
-22456.9
-24083.6
-25851.4
-27863.1
-30319.8
-33660.5
-38983.8
34140.4
28892.7
25702
23467.5
21746.5
20333.4
19119.7
18041.7
17059.1
16144
15276.5
14441.4
13626.6
12822.3
12020.2
11213.1
10394.7
9559.69
8703.17
7821.05
6909.82
5966.56
4988.96
3975.34
2924.6
1836.27
710.479
-452.079
-1650.14
-2881.92
-4145.19
-5437.3
-6755.32
-8096.11
-9456.46
-10833.3
-12223.9
-13626.1
-15038.8
-16462.4
-17899.8
-19357.1
-20845.7
-22385.4
-24009.4
-25774.8
-27784.6
-30239.8
-33579.6
-38902.4
34015.7
28768.4
25578.5
23345.1
21625.6
20214.4
19002.9
17927.5
16947.8
16035.9
15171.9
14340.6
13529.9
12730
11932.6
11130.5
10317.4
9488.01
8637.43
7761.59
6856.95
5920.62
4950.29
3944.26
2901.43
1821.32
704.041
-449.734
-1638.76
-2861.31
-4115.15
-5397.72
-6706.1
-8037.21
-9387.92
-10755.2
-12136.4
-13529.4
-14933.2
-16348.3
-17777.6
-19227.4
-20709.1
-22242.5
-23861
-25621.7
-27627.7
-30080
-33417.7
-38739.6
33828.5
28581.7
25393
23161.4
21444.2
20035.9
18827.7
17756.3
16780.8
15873.8
15015.1
14189.5
13385
12591.8
11801.4
11006.8
10201.7
9380.71
8539.05
7672.6
6777.85
5851.91
4892.45
3897.78
2866.8
1798.99
694.45
-446.178
-1621.69
-2830.4
-4070.15
-5338.41
-6632.36
-7948.99
-9285.24
-10638.2
-12005.3
-13384.5
-14775
-16177.3
-17594.5
-19033
-20504.2
-22028.3
-23638.5
-25392.1
-27392.3
-29840.2
-33175
-38495.4
33578.4
28332.5
25145.4
22916.1
21202.1
19797.6
18594.1
17527.9
16558.3
15657.8
14806.2
13988.3
13192.1
12407.7
11626.8
10842.2
10047.8
9238.06
8408.28
7554.34
6672.76
5760.62
4815.63
3836.08
2820.84
1769.39
681.783
-441.369
-1598.92
-2789.24
-4010.24
-5259.47
-6534.22
-7831.57
-9148.59
-10482.5
-11830.7
-13191.6
-14564.3
-15949.7
-17350.7
-18774
-20231.3
-21742.8
-23341.9
-25086.1
-27078.5
-29520.6
-32851.4
-38169.7
33265.2
28020.3
24835.3
22609.1
20899.1
19499.6
18301.9
17242.3
16280.3
15388
14545.4
13737.3
12951.5
12178.3
11409.2
10637.2
9856.09
9060.42
8245.47
7407.15
6541.98
5647.07
4720.1
3759.37
2763.74
1732.66
666.138
-435.255
-1570.44
-2737.85
-3935.49
-5161.03
-6411.85
-7685.17
-8978.18
-10288.2
-11613.1
-12951
-14301.5
-15665.5
-17046.3
-18450.6
-19890.5
-21386.2
-22971.4
-24703.6
-26686.4
-29121
-32446.8
-37762.7
32888.3
27644.7
24462.2
22239.8
20534.8
19141.4
17950.9
16899.6
15946.7
15064.5
14232.9
13436.6
12663.5
11903.7
11149
10392.1
9627.02
8848.23
8051.06
7231.45
6385.93
5511.6
4606.18
3667.94
2695.73
1688.97
647.633
-427.775
-1536.24
-2676.29
-3846.04
-5043.25
-6265.46
-7510.02
-8774.32
-10055.9
-11352.6
-12663
-13986.8
-15325.2
-16681.6
-18063.2
-19482
-20958.6
-22527
-24244.8
-26215.8
-28641.5
-31961.2
-37274
32447
27205
24025.6
21807.8
20108.9
18722.9
17541.1
16499.6
15557.7
14687.6
13869
13086.7
12328.5
11584.6
10846.6
10107.5
9361.12
8602.03
7825.6
7027.75
6205.07
5354.67
4474.26
3562.12
2617.09
1638.54
626.409
-418.859
-1496.33
-2604.64
-3742
-4906.33
-6095.3
-7306.45
-8537.34
-9785.7
-11049.7
-12328
-13620.7
-14929.1
-16257.1
-17611.9
-19006
-20460.2
-22008.8
-23709.7
-25666.8
-28081.8
-31394.4
-36703.6
31940.4
26700.2
23524.6
21312.3
19620.6
18243.5
17072
16042.2
15113.3
14257.2
13453.9
12687.8
11947
11221.4
10502.8
9784.02
9059.04
8322.48
7569.69
6796.66
5999.96
5176.77
4324.79
3442.3
2528.12
1581.6
602.622
-408.434
-1450.73
-2522.98
-3623.56
-4750.52
-5901.7
-7074.83
-8267.68
-9478.21
-10704.8
-11946.5
-13203.6
-14477.6
-15772.9
-17097
-18462.7
-19891.1
-21416.7
-23098
-25039
-27441.7
-30746
-36051
31367.1
26129.2
22958.1
20752.4
19069.3
17702.6
16543.3
15527.2
14613.4
13773.7
12987.9
12240.6
11519.5
10814.7
10118
9422.35
8721.53
8010.31
7284.07
6538.85
5771.26
4978.5
4158.29
3308.91
2429.18
1518.41
576.443
-396.426
-1399.44
-2431.44
-3490.93
-4576.11
-5685.02
-6815.59
-7965.82
-9133.92
-10318.5
-11519.1
-12735.9
-13971.3
-15229.6
-16518.8
-17852.2
-19251.2
-20750.7
-22409.5
-24332
-26720.6
-30015.3
-35315.5
30725.4
25490.2
22324.5
20126.8
18453.9
17099.6
15954.5
14954.3
14058
13237.2
12471.5
11745.4
11046.6
10365.4
9693.3
9023.34
8349.44
7666.36
6969.56
6255.11
5519.69
4760.51
3975.33
3162.45
2320.67
1449.28
548.054
-382.761
-1342.51
-2330.16
-3344.35
-4383.46
-5445.72
-6529.27
-7632.36
-8753.46
-9891.53
-11046.3
-12218.5
-13410.6
-14627.5
-15877.7
-17174.7
-18540.5
-20010.4
-21643.7
-23545.3
-25917.8
-29201.5
-34496.2
30013.2
24781.3
21622
19433.7
17773
16433.2
15304.8
14323.2
13447
12647.8
11904.9
11202.8
10529.2
9874.2
9229.43
8587.95
7943.73
7291.6
6627.08
5946.32
5246.05
4523.53
3776.57
3003.46
2203.01
1374.5
517.647
-367.375
-1280.01
-2219.33
-3184.14
-4173
-5184.31
-6216.47
-7267.97
-8337.57
-9424.53
-10528.9
-11651.8
-12796.1
-13967.2
-15173.9
-16430.3
-17758.8
-19195.5
-20800
-22677.7
-25031.8
-28303.1
-33591.4
29227.3
23999.4
20847.9
18670.9
17024.7
15702.2
14593.4
13633.4
12780.4
12005.8
11288.8
10613.7
9968.1
9342.12
8727.49
8117.27
7505.5
6887.11
6257.69
5613.47
4951.26
4268.38
3562.7
2832.53
2076.68
1294.41
485.416
-350.213
-1212.01
-2099.18
-3010.67
-3945.2
-4901.41
-5877.91
-6873.46
-7887.1
-8918.41
-9967.76
-11036.7
-12128.6
-13249.1
-14407.6
-15618.9
-16905.8
-18305.1
-19877.1
-21727.8
-24061
-27318
-32599.1
28363.7
23140.7
19998.7
17835.5
16206.8
14904.8
13819.2
12884.3
12058
11311.5
10623.7
9978.7
9364.23
8770.29
8188.68
7612.53
7036
6454.09
5862.52
5257.63
4636.3
3995.95
3334.49
2650.29
1942.16
1209.37
451.56
-331.235
-1138.64
-1969.98
-2824.35
-3700.65
-4597.72
-5514.42
-6449.73
-7403.02
-8374.17
-9363.91
-10374.2
-11408.8
-12473.8
-13579.3
-14740.4
-15981
-17338.2
-18873.4
-20693.3
-23002.5
-26243.1
-31515.9
27416.8
22199.9
19069.8
16923.6
15316.1
14038.9
12980.6
12075.1
11279.7
10565.2
9910.2
9298.89
8718.8
8159.99
7614.36
7075.14
6536.6
5993.9
5442.88
4880
4302.27
3707.2
3092.78
2457.43
1800
1119.74
416.272
-310.42
-1060.05
-1832.06
-2625.69
-3440.02
-4274.07
-5126.94
-5997.87
-6886.5
-7793.02
-8718.51
-9665.31
-10637.6
-11642
-12689.1
-13794.7
-14983.4
-16293.3
-17786.6
-19571.1
-21852.7
-25074.1
-30337.1
26378.8
21169.8
18054.8
15930
14348.8
13101.6
12076
11205
10445.4
9767.26
9149.31
8575.41
8033.18
7512.74
7006.11
6506.67
6008.87
5508.03
5000.16
4481.89
3950.35
3403.18
2838.46
2254.68
1650.74
1025.89
379.742
-287.771
-976.442
-1685.82
-2415.29
-3164.07
-3931.41
-4716.58
-5519.1
-6338.85
-7176.33
-8032.92
-8911.33
-9816.1
-10754.4
-11737.4
-12781.5
-13912.1
-15168.3
-16613.5
-18357
-20606
-23804.7
-29056
25239.1
20040.5
16945.2
14847.7
13299.7
12089.5
11103.4
10273.2
9554.97
8918.48
8342.1
7809.73
7309.03
6830.29
6365.72
5908.91
5454.54
4998.14
4535.93
4064.72
3581.82
3085.01
2572.49
2042.82
1494.97
928.21
342.152
-263.318
-888.061
-1531.72
-2193.8
-2873.7
-3570.81
-4284.62
-5014.86
-5761.65
-6525.73
-7308.79
-8113.84
-8945.76
-9812.19
-10724.6
-11700.4
-12765.6
-13960.5
-15349.9
-17045
-19254.8
-22425.9
-27662.8
23982.2
18797.7
15729.1
13667.8
12162.3
10998.5
10060.5
9278.85
8608.81
8019.79
7490.06
7003.61
6548.3
6114.69
5695.25
5283.89
4875.56
4466.07
4051.89
3630.05
3198.08
2753.91
2295.88
1822.67
1333.3
827.101
303.671
-237.123
-795.201
-1370.3
-1962.02
-2569.91
-3193.52
-3832.51
-4486.79
-5156.69
-5843.16
-6548.1
-7274.75
-8028.27
-8816.59
-9651.64
-10551.3
-11542.4
-12666.6
-13990.2
-15626.8
-17788.2
-20924.5
-26143
22585.1
17421.1
14390.1
12378
10928.6
9823.77
8945.01
8221.43
7607.56
7072.66
6595.14
6159.3
5753.37
5368.33
4997.06
4633.86
4274.07
3913.81
3549.87
3179.55
2800.6
2411.16
2009.72
1595.09
1166.38
722.958
264.456
-209.28
-698.215
-1202.16
-1720.81
-2253.84
-2800.93
-3361.89
-3936.78
-4526.07
-5130.87
-5753.2
-6396.42
-7065.83
-7769.49
-8519.55
-9334.2
-10241
-11282.6
-12527.2
-14091.2
-16190.8
-19281
-24474.8
21012.6
15880.2
12904.7
10962.5
9588.81
8560.15
7754.96
7101.04
6552.62
6079.27
5659.94
5279.57
4927.05
4593.97
4273.81
3961.37
3652.44
3343.56
3031.89
2715.02
2390.98
2058.13
1715.15
1360.98
994.848
616.184
224.648
-179.917
-597.506
-1027.99
-1471.16
-1926.77
-2394.62
-2874.63
-3366.97
-3872.21
-4391.5
-4926.9
-5481.76
-6061.29
-6673.46
-7330.28
-8049.9
-8860.06
-9804.06
-10951.9
-12423.3
-14440.2
-17466.1
-22623.9
19207.7
14127.9
11239.9
9400.5
8131.67
7202.72
6489.34
5918.95
5446.52
5042.76
4687.84
4367.84
4072.68
3794.84
3528.53
3269.22
3013.27
2757.71
2500.08
2238.37
1970.89
1696.26
1413.35
1121.28
819.388
507.184
184.372
-149.195
-493.535
-848.565
-1214.14
-1590.1
-1976.32
-2372.8
-2779.78
-3197.84
-3628.12
-4072.57
-4534.34
-5018.33
-5532.03
-6086.87
-6700.27
-7399.31
-8226.99
-9254.1
-10603.4
-12504.2
-15433.8
-20534.5
17071.2
12089
9348.4
7666.79
6545.93
5748.29
5149.25
4678.38
4293.37
3967.53
3683.21
3428.31
3194.21
2974.57
2764.58
2560.51
2359.38
2158.78
1956.74
1751.63
1542.1
1327.05
1105.57
876.962
640.688
396.363
143.739
-117.311
-386.813
-664.72
-950.937
-1245.36
-1547.93
-1858.7
-2177.89
-2506.07
-2844.24
-3194.12
-3558.47
-3941.57
-4350.02
-4793.97
-5289.18
-5860.63
-6549.02
-7423.39
-8607.13
-10336.8
-13109.9
-18108.5
14414.2
9638.79
7165.62
5734.07
4823.74
4198.03
3739.57
3385.43
3099.42
2859.51
2651.53
2465.97
2296.16
2137.28
1985.69
1838.6
1693.8
1549.51
1404.29
1256.93
1106.46
952.058
793.082
629.011
459.454
284.126
102.845
-84.4873
-277.898
-477.362
-682.821
-894.215
-1111.52
-1334.8
-1564.25
-1800.33
-2043.83
-2296.1
-2559.3
-2836.78
-3133.76
-3458.35
-3823.38
-4249.64
-4772.16
-5452.88
-6408.31
-7874.32
-10370.8
-15157.9
10828.4
6568.66
4613.48
3583.16
2967.98
2561.56
2271.02
2050.06
1873.45
1726.34
1599.43
1486.61
1383.64
1287.47
1195.86
1107.06
1019.72
932.738
845.234
756.477
665.865
572.909
477.21
378.454
276.401
170.879
61.7745
-50.9745
-167.387
-287.451
-411.137
-538.414
-669.277
-803.772
-942.037
-1084.36
-1231.26
-1383.6
-1542.75
-1710.87
-1891.31
-2089.36
-2313.5
-2577.83
-2906.91
-3346.42
-3988.73
-5039.77
-7008.95
-11275.7
5286.09
2562.67
1638.94
1229.23
1004.55
861.911
761.909
686.649
626.864
577.263
534.591
496.727
462.215
430.018
399.366
369.675
340.482
311.42
282.19
252.547
222.288
191.25
159.297
126.326
92.2555
57.0271
20.6027
-17.0388
-55.9041
-95.9901
-137.287
-179.787
-223.489
-268.409
-314.597
-362.154
-411.257
-462.202
-515.464
-571.783
-632.323
-698.924
-774.574
-864.311
-977.176
-1130.86
-1364.59
-1781.22
-2709.62
-5435.4
2569.97
1889
1432.1
1151.36
970.066
844.854
752.918
681.804
624.315
576.05
534.183
496.809
462.595
430.575
400.021
370.373
341.189
312.11
282.845
253.153
222.836
191.731
159.707
126.658
92.5056
57.1918
20.6793
-17.0522
-56.0085
-96.1849
-137.57
-180.153
-223.929
-268.909
-315.135
-362.696
-411.753
-462.574
-515.589
-571.469
-631.255
-696.569
-769.969
-855.604
-960.443
-1096.73
-1287.12
-1574.79
-2036.38
-2719.71
6589.69
5216.57
4121.7
3378.53
2872.4
2512.99
2245.06
2035.98
1866.02
1722.82
1598.27
1486.89
1384.8
1289.16
1197.83
1109.16
1021.84
934.805
847.196
758.293
667.507
574.353
478.437
379.448
277.151
171.373
62.0042
-51.0146
-167.7
-288.035
-411.985
-539.512
-670.598
-805.273
-943.654
-1086
-1232.76
-1384.73
-1543.16
-1709.99
-1888.22
-2082.51
-2300.14
-2552.73
-2859.31
-3251.93
-3785.27
-4549.25
-5658.16
-7038.35
9672.33
7980.25
6509.63
5442.83
4681.52
4123.68
3699.16
3363.3
3087.72
2854
2649.79
2466.55
2298.16
2140.11
1988.98
1842.1
1697.33
1552.95
1407.55
1259.95
1109.19
954.458
795.121
630.664
460.699
284.946
103.226
-84.5556
-278.42
-478.335
-684.233
-896.044
-1113.72
-1337.3
-1566.96
-1803.07
-2046.36
-2298.05
-2560.09
-2835.51
-3128.97
-3447.62
-3802.45
-4210.64
-4699.42
-5312.46
-6119.02
-7220.39
-8714.37
-10418.2
12133.9
10287.7
8601.44
7320.51
6370.94
5654.54
5097.47
4649.78
4278.24
3960.49
3681.15
3429.33
3197.12
2978.6
2769.23
2565.42
2364.33
2163.6
1961.3
1755.85
1545.91
1330.39
1108.41
879.266
642.424
397.505
144.268
-117.409
-387.545
-666.082
-952.914
-1247.92
-1551.02
-1862.21
-2181.7
-2509.94
-2847.85
-3196.97
-3559.79
-3940.17
-4343.99
-4780.18
-5262.25
-5810.81
-6457.51
-7250.88
-8263.56
-9592.71
-11311.6
-13174.2
14183.3
12256
10442.2
9020.21
7934.75
7095.21
6429.2
5885.53
5428.88
5034.72
4685.76
4369.48
4076.6
3800.12
3534.55
3275.55
3019.63
2763.88
2505.93
2243.78
1975.77
1700.55
1416.99
1124.23
821.608
508.644
185.046
-149.324
-494.476
-850.315
-1216.68
-1593.39
-1980.28
-2377.33
-2784.7
-3202.87
-3632.86
-4076.42
-4536.36
-5017.1
-5525.29
-6070.95
-6668.99
-7341.69
-8122.35
-9060.35
-10226.5
-11710.2
-13565.6
-15513.9
15945.1
13971.2
12078.3
10561.5
9377.7
8443.35
7689.05
7064.3
6533.35
6070.76
5658.15
5281.99
4932.08
4600.55
4281.22
3969.13
3660.2
3351.09
3039.01
2721.6
2396.92
2063.34
1719.57
1364.57
997.544
617.955
225.463
-180.079
-598.656
-1030.13
-1474.26
-1930.79
-2399.47
-2880.18
-3373.02
-3878.43
-4397.44
-4931.85
-5484.67
-6060.54
-6666.52
-7313.1
-8015.76
-8797.21
-9690.75
-10744.7
-12026.4
-13618.2
-15561.7
-17561.1
17494.9
15491.8
13547.1
11964.5
10708.6
9701.02
8875.39
8182.65
7587.44
7064.14
6593.93
6162.69
5759.61
5376.25
5005.88
4643.04
4283.22
3922.67
3558.24
3187.28
2807.57
2417.28
2014.91
1599.29
1169.54
725.032
265.408
-209.477
-699.573
-1204.68
-1724.47
-2258.58
-2806.66
-3368.46
-3943.96
-4533.52
-5138.05
-5759.35
-6400.38
-7065.83
-7762.83
-8501.9
-9298.47
-10175
-11163.9
-12311.7
-13682.6
-15353.1
-17357.1
-19390.1
18879.7
16857.1
14876.8
13246.9
11937
10872.2
9988.73
9239.05
8588.49
8011.67
7489.67
7008.1
6555.82
6123.99
5705.5
5294.48
4886.09
4476.24
4061.48
3638.9
3206.06
2760.91
2301.82
1827.48
1336.92
829.469
304.754
-237.356
-796.766
-1373.19
-1966.22
-2575.36
-3200.12
-3840.09
-4495.11
-5165.36
-5851.63
-6555.53
-7279.9
-8029.28
-8810.6
-9634.15
-10515
-11474.8
-12544.9
-13770.1
-15211.5
-16941.8
-18990
-21046.7
20129.9
18093.7
16087.6
14422.8
13071.4
11961.3
11030.7
10233.1
9534.96
8911.08
8342.72
7815.43
7317.88
6841
6377.38
5920.9
5466.43
5009.6
4546.72
4074.66
3590.78
3092.87
2579.15
2048.21
1499.02
930.862
343.36
-263.588
-889.828
-1534.99
-2198.54
-2879.85
-3578.26
-4293.21
-5024.31
-5771.55
-6535.51
-7317.55
-8120.29
-8947.97
-9807.18
-10707.8
-11664.2
-12697.4
-13837.5
-15127.4
-16626.3
-18403.8
-20485.9
-22560.5
21266.1
19219.8
17194.5
15503
14119.2
12972.7
12003.1
11165.3
10426
9760.82
9151.09
8582.41
8043.4
7524.85
7019.17
6520.03
6022.07
5520.73
5012.11
4492.89
3960.25
3411.86
2845.82
2260.63
1655.2
1028.81
381.069
-288.079
-978.409
-1689.45
-2420.54
-3170.9
-3939.7
-4726.15
-5529.66
-6349.99
-7187.41
-8043.05
-8919.16
-9819.64
-10750.7
-11721.5
-12746
-13844.2
-15045.1
-16390.2
-17936.9
-19752.9
-21862.2
-23950.9
22302.5
20248.5
18208.4
16495.9
15086.2
13910
12908.1
12036
11261.3
10559.8
9913.24
9307.22
8730.4
8173.49
7628.79
7089.83
6551.07
6007.8
5455.94
4892.01
4313.08
3716.67
3100.81
2463.92
1804.87
1122.92
417.71
-310.767
-1062.21
-1836.04
-2631.46
-3447.51
-4283.18
-5137.46
-6009.52
-6898.84
-7805.41
-8730.02
-9674.56
-10642.5
-11639.6
-12674.5
-13760.4
-14916.4
-16170.7
-17563.5
-19150.9
-20999.1
-23130.9
-25231.1
23249
21189
19137.2
17407.9
15977.2
14776.5
13747.4
12846.2
12040.8
11307.4
10628
9988.39
9377.2
8785.15
8204.44
7628.51
7051.69
6469.14
5876.65
5270.61
4647.97
4006.18
3343.15
2657.29
1947.42
1212.8
453.103
-331.622
-1140.98
-1974.29
-2830.6
-3708.78
-4607.61
-5525.86
-6462.44
-7416.54
-8387.85
-9376.8
-10384.9
-11415.2
-12472.9
-13566.1
-14707.4
-15915.2
-17216.7
-18651.2
-20273.6
-22149.5
-24300.2
-26410.1
24113
22048.1
19986.9
18243.9
16795.8
15574.8
14522.7
13596.4
12764.4
12003
11294.5
10624.7
9982.41
9358.3
8744.54
8134.47
7522.37
6903.25
6272.82
5627.37
4963.75
4279.33
3571.96
2840.01
2082.29
1298.07
487.058
-350.639
-1214.53
-2103.81
-3017.38
-3953.93
-4912.04
-5890.24
-6887.17
-7901.75
-8933.33
-9981.98
-11048.8
-12136.5
-13249.7
-14396
-15587.3
-16841.5
-18184.9
-19656.1
-21309.3
-23209
-25376.1
-27494.2
24899.6
22830.8
20761.8
19007.6
17545
16306.8
15235.2
14287.5
13432.2
12646.3
11911.9
11215.2
10544.8
9891.63
9247.69
8606.32
7961.69
7308.77
6643.17
5961.09
5259.32
4535.14
3786.4
3011.4
2208.96
1378.37
519.379
-367.839
-1282.7
-2224.27
-3191.3
-4182.3
-5195.65
-6229.64
-7282.65
-8353.31
-9440.65
-10544.4
-11665.3
-12805.5
-13969.2
-15163.8
-16400.3
-17696
-19076.7
-20580.4
-22260.6
-24181.1
-26362.5
-28487.9
25612.8
23540.7
21465.3
19701.7
18227.1
16974.3
15886.1
14919.8
14044.4
13236.9
12479.7
11758.9
11063.5
10384
9712.71
9042.8
8368.43
7684.49
6986.53
6270.68
5533.67
4772.74
3985.69
3170.81
2326.93
1453.35
549.87
-383.262
-1345.37
-2335.38
-3351.92
-4393.31
-5457.72
-6543.22
-7647.95
-8770.22
-9908.77
-11063
-12233.2
-13421.3
-14631
-15869.1
-17146.2
-18479.2
-19893.2
-21425.7
-23129.7
-25068.6
-27262.4
-29394.1
26255.5
24180.7
22099.9
20328.4
18843.6
17578.6
16476.1
15493.8
14601
13774.6
12997.3
12255.3
11537.4
10834.5
10138.5
9442.82
8741.48
8029.33
7301.86
6555.16
5785.91
4991.31
4169.13
3317.66
2435.73
1522.67
578.333
-396.963
-1402.44
-2436.93
-3498.87
-4586.45
-5697.64
-6830.27
-7982.25
-9151.63
-10336.8
-11536.9
-12752
-13983.3
-15234.5
-16511.6
-17825.2
-19191.4
-20635
-22193
-23918
-25873
-28077.7
-30214.9
26829.9
24752.8
22667.6
20889.5
19396.1
18120.5
17005.9
16010
15102
14259.3
13464.4
12703.7
11966
11242.1
10524.2
9805.43
9079.87
8342.32
7588.23
6813.65
6015.21
5190.11
4336.07
3451.4
2534.93
1586.02
604.579
-409.006
-1453.87
-2528.71
-3631.86
-4761.32
-5914.88
-7090.18
-8284.88
-9496.79
-10724.1
-11965.5
-13220.7
-14490.9
-15779.1
-17091.1
-18437.1
-19832.7
-21302.5
-22883
-24626.4
-26595.5
-28809.8
-30951.9
27337.6
25258.6
23169.6
21386
19885.3
18601
17476
16468.4
15547.5
14690.7
13880.5
13103.5
12348.5
11606.3
10869
10129.8
9382.73
8622.61
7844.81
7045.36
6220.86
5368.47
4485.94
3571.54
2624.13
1643.11
628.425
-419.464
-1499.6
-2610.59
-3750.62
-4917.55
-6108.99
-7322.41
-8555.25
-9805.08
-11069.8
-12347.9
-13638.9
-14943.5
-16264.4
-17607.2
-18981.7
-20403.2
-21895.9
-23496
-25255.6
-27237
-29459.7
-31605.9
27779.9
25699.4
23607.2
21819
20312.3
19020.5
17886.9
16869.4
15937.5
15068.6
14245.4
13454.3
12684.3
11926.2
11172.1
10415.1
9649.32
8869.45
8070.87
7249.6
6402.2
5525.83
4618.21
3677.64
2702.98
1693.67
649.699
-428.411
-1539.63
-2682.44
-3854.94
-5054.84
-6279.61
-7526.53
-8792.85
-10076
-11373.5
-12683.8
-14006
-15340.6
-16690
-18059.7
-19458.8
-20902.8
-22415.3
-24032.4
-25805.9
-27798
-30027.8
-32177.6
28157.6
26075.8
23981.2
22189.1
20677.4
19379.5
18238.7
17212.9
16271.8
15392.8
14558.6
13755.7
12973.1
12201.5
11433
10660.8
9879
9082.2
8265.79
7425.76
6558.67
5661.65
4732.43
3769.31
2771.16
1737.47
668.245
-435.92
-1573.92
-2744.17
-3944.64
-5172.95
-6426.4
-7702.14
-8997.26
-10308.9
-11634.7
-12972.5
-14321.5
-15681.7
-17055.6
-18448.1
-19868.4
-21331.4
-22860.8
-24492.3
-26277.5
-28278.6
-30514.5
-32667.4
28471.6
26388.8
24292
22496.9
20981.2
19678.3
18531.6
17499.2
16550.6
15663.3
14820.1
14007.4