/*--------------------------------*- C++ -*----------------------------------*\
| =========                 |                                                 |
| \\      /  F ield         | OpenFOAM: The Open Source CFD Toolbox           |
|  \\    /   O peration     | Version:  5.x                                   |
|   \\  /    A nd           | Web:      www.OpenFOAM.org                      |
|    \\/     M anipulation  |                                                 |
\*---------------------------------------------------------------------------*/
FoamFile
{
    version     2.0;
    format      ascii;
    class       volScalarField;
    location    "1.5";
    object      gradTz;
}
// * * * * * * * * * * * * * * * * * * * * * * * * * * * * * * * * * * * * * //

dimensions      [0 -1 0 1 0 0 0];

internalField   nonuniform List<scalar> 
25000
(
-6333.96
-6850.58
-6999.95
-7052.49
-7074.12
-7083.95
-7088.58
-7090.65
-7091.35
-7091.31
-7090.83
-7090.1
-7089.24
-7088.32
-7087.39
-7086.46
-7085.57
-7084.73
-7083.94
-7083.22
-7082.58
-7082.01
-7081.52
-7081.12
-7080.82
-7080.6
-7080.49
-7080.47
-7080.56
-7080.76
-7081.06
-7081.47
-7081.98
-7082.6
-7083.31
-7084.1
-7084.96
-7085.85
-7086.73
-7087.54
-7088.15
-7088.38
-7087.9
-7086.11
-7081.79
-7072.3
-7051.05
-6998.9
-6849.95
-6333.75
-6850.58
-7839.9
-8182.94
-8317.8
-8376.78
-8404.43
-8417.63
-8423.54
-8425.53
-8425.32
-8423.84
-8421.65
-8419.07
-8416.31
-8413.5
-8410.73
-8408.06
-8405.53
-8403.18
-8401.02
-8399.08
-8397.38
-8395.92
-8394.72
-8393.8
-8393.16
-8392.81
-8392.77
-8393.04
-8393.63
-8394.53
-8395.75
-8397.29
-8399.14
-8401.26
-8403.64
-8406.21
-8408.89
-8411.55
-8413.98
-8415.85
-8416.61
-8415.3
-8410.21
-8397.94
-8371.33
-8313.46
-8179.79
-7837.99
-6849.94
-6999.95
-8182.95
-8629.54
-8817.39
-8903.52
-8945.09
-8965.22
-8974.23
-8977.14
-8976.58
-8974.02
-8970.32
-8966
-8961.39
-8956.7
-8952.09
-8947.65
-8943.45
-8939.53
-8935.95
-8932.72
-8929.89
-8927.47
-8925.48
-8923.94
-8922.88
-8922.31
-8922.24
-8922.68
-8923.65
-8925.16
-8927.19
-8929.75
-8932.82
-8936.35
-8940.31
-8944.59
-8949.07
-8953.52
-8957.62
-8960.84
-8962.3
-8960.53
-8952.87
-8934.29
-8894.44
-8810.18
-8624.3
-8179.78
-6998.89
-7052.51
-8317.84
-8817.43
-9036.69
-9140.64
-9191.96
-9217.08
-9228.23
-9231.57
-9230.41
-9226.64
-9221.36
-9215.27
-9208.8
-9202.26
-9195.81
-9189.61
-9183.74
-9178.28
-9173.28
-9168.79
-9164.84
-9161.46
-9158.69
-9156.55
-9155.06
-9154.26
-9154.16
-9154.78
-9156.14
-9158.24
-9161.07
-9164.64
-9168.92
-9173.86
-9179.39
-9185.38
-9191.66
-9197.93
-9203.77
-9208.46
-9210.88
-9209.12
-9199.86
-9176.91
-9127.98
-9026.63
-8810.13
-8313.42
-7051.03
-7074.15
-8376.87
-8903.63
-9140.74
-9255.63
-9313.18
-9341.44
-9353.76
-9357.02
-9354.99
-9349.85
-9342.93
-9335.04
-9326.71
-9318.3
-9310.05
-9302.1
-9294.6
-9287.61
-9281.22
-9275.47
-9270.41
-9266.09
-9262.55
-9259.81
-9257.91
-9256.89
-9256.76
-9257.55
-9259.28
-9261.97
-9265.6
-9270.16
-9275.64
-9281.96
-9289.05
-9296.75
-9304.83
-9312.96
-9320.6
-9326.91
-9330.55
-9329.33
-9319.42
-9293.92
-9239.44
-9127.87
-8894.3
-8371.22
-7072.26
-7084.01
-8404.61
-8945.33
-9192.22
-9313.36
-9374.47
-9404.38
-9417.02
-9419.72
-9416.54
-9409.9
-9401.26
-9391.55
-9381.37
-9371.11
-9361.06
-9351.41
-9342.29
-9333.8
-9326.04
-9319.06
-9312.92
-9307.68
-9303.37
-9300.05
-9297.75
-9296.5
-9296.34
-9297.31
-9299.41
-9302.66
-9307.07
-9312.61
-9319.27
-9326.96
-9335.59
-9344.98
-9354.87
-9364.87
-9374.38
-9382.44
-9387.57
-9387.34
-9377.63
-9351.09
-9293.7
-9176.59
-8933.99
-8397.74
-7081.71
-7088.68
-8417.92
-8965.65
-9217.57
-9341.91
-9404.68
-9435.08
-9447.36
-9449.1
-9444.56
-9436.3
-9425.89
-9414.34
-9402.31
-9390.23
-9378.42
-9367.08
-9356.38
-9346.43
-9337.33
-9329.14
-9321.95
-9315.8
-9310.76
-9306.86
-9304.16
-9302.7
-9302.51
-9303.64
-9306.1
-9309.91
-9315.08
-9321.58
-9329.39
-9338.43
-9348.57
-9359.63
-9371.33
-9383.22
-9394.64
-9404.56
-9411.4
-9412.56
-9403.72
-9377.26
-9318.85
-9199.25
-8952.35
-8409.86
-7085.98
-7090.8
-8423.98
-8974.9
-9229.06
-9354.63
-9417.78
-9447.84
-9459.24
-9459.71
-9453.63
-9443.67
-9431.46
-9418.07
-9404.21
-9390.34
-9376.8
-9363.82
-9351.58
-9340.2
-9329.8
-9320.45
-9312.22
-9305.2
-9299.43
-9294.98
-9291.89
-9290.22
-9290
-9291.28
-9294.09
-9298.45
-9304.35
-9311.79
-9320.73
-9331.07
-9342.7
-9355.41
-9368.89
-9382.66
-9396.03
-9407.9
-9416.6
-9419.45
-9411.98
-9386.42
-9328.27
-9208.11
-8959.7
-8414.77
-7087.72
-7091.57
-8426.17
-8978.14
-9232.83
-9358.42
-9421.08
-9450.24
-9460.4
-9459.38
-9451.65
-9439.92
-9425.9
-9410.69
-9395.03
-9379.41
-9364.19
-9349.63
-9335.89
-9323.13
-9311.46
-9300.98
-9291.76
-9283.89
-9277.42
-9272.43
-9268.96
-9267.09
-9266.84
-9268.28
-9271.42
-9276.3
-9282.92
-9291.27
-9301.29
-9312.91
-9325.98
-9340.3
-9355.53
-9371.17
-9386.49
-9400.35
-9411.03
-9415.77
-9410.02
-9385.92
-9328.86
-9209.34
-8961.08
-8415.84
-7088.12
-7091.61
-8426.2
-8977.98
-9232.22
-9357.06
-9418.69
-9446.57
-9455.26
-9452.61
-9443.15
-9429.64
-9413.82
-9396.83
-9379.41
-9362.1
-9345.26
-9329.15
-9313.98
-9299.89
-9287.01
-9275.43
-9265.26
-9256.57
-9249.43
-9243.91
-9240.08
-9238.01
-9237.74
-9239.32
-9242.79
-9248.17
-9255.48
-9264.69
-9275.76
-9288.61
-9303.09
-9318.96
-9335.9
-9353.37
-9370.63
-9386.5
-9399.21
-9405.96
-9402.15
-9379.85
-9324.4
-9206.27
-8959.14
-8414.79
-7087.79
-7091.22
-8425.02
-8975.9
-9229.1
-9352.74
-9413.02
-9439.39
-9446.46
-9442.12
-9430.92
-9415.64
-9398.06
-9379.32
-9360.21
-9341.26
-9322.86
-9305.28
-9288.73
-9273.37
-9259.32
-9246.7
-9235.61
-9226.14
-9218.35
-9212.34
-9208.16
-9205.9
-9205.6
-9207.32
-9211.09
-9216.96
-9224.92
-9234.96
-9247.04
-9261.07
-9276.89
-9294.27
-9312.86
-9332.12
-9351.26
-9369.12
-9383.87
-9392.69
-9390.94
-9370.65
-9317.12
-9200.79
-8955.35
-8412.57
-7087.06
-7090.61
-8423.17
-8972.76
-9224.6
-9346.79
-9405.52
-9430.29
-9435.68
-9429.63
-9416.69
-9399.69
-9380.39
-9359.98
-9339.24
-9318.74
-9298.85
-9279.86
-9262
-9245.42
-9230.27
-9216.66
-9204.7
-9194.47
-9186.08
-9179.59
-9175.08
-9172.63
-9172.31
-9174.15
-9178.22
-9184.54
-9193.13
-9203.96
-9217
-9232.15
-9249.25
-9268.07
-9288.24
-9309.22
-9330.2
-9349.99
-9366.76
-9377.64
-9377.99
-9359.79
-9308.34
-9194.04
-8950.58
-8409.73
-7086.12
-7089.89
-8420.98
-8969.09
-9219.4
-9340.02
-9397.14
-9420.26
-9423.98
-9416.24
-9401.62
-9382.94
-9362.01
-9340
-9317.72
-9295.73
-9274.43
-9254.12
-9235.01
-9217.29
-9201.09
-9186.55
-9173.76
-9162.83
-9153.85
-9146.91
-9142.1
-9139.47
-9139.12
-9141.09
-9145.43
-9152.18
-9161.35
-9172.94
-9186.88
-9203.09
-9221.41
-9241.59
-9263.26
-9285.88
-9308.62
-9330.27
-9348.99
-9361.9
-9364.32
-9348.23
-9298.9
-9186.72
-8945.37
-8406.61
-7085.08
-7089.12
-8418.67
-8965.21
-9213.95
-9332.97
-9388.48
-9409.97
-9412.06
-9402.68
-9386.45
-9366.19
-9343.7
-9320.18
-9296.45
-9273.07
-9250.45
-9228.89
-9208.61
-9189.82
-9172.64
-9157.21
-9143.65
-9132.06
-9122.54
-9115.18
-9110.07
-9107.28
-9106.9
-9108.98
-9113.58
-9120.73
-9130.46
-9142.74
-9157.53
-9174.73
-9194.2
-9215.66
-9238.75
-9262.91
-9287.31
-9310.74
-9331.32
-9346.18
-9350.6
-9336.57
-9289.33
-9179.27
-8940.04
-8403.41
-7084.01
-7088.35
-8416.35
-8961.34
-9208.52
-9325.98
-9379.92
-9399.84
-9400.38
-9389.46
-9371.71
-9349.95
-9326.01
-9301.08
-9275.99
-9251.31
-9227.46
-9204.74
-9183.38
-9163.59
-9145.5
-9129.25
-9114.98
-9102.77
-9092.74
-9084.99
-9079.6
-9076.67
-9076.26
-9078.44
-9083.28
-9090.8
-9101.04
-9113.97
-9129.54
-9147.68
-9168.2
-9190.86
-9215.27
-9240.87
-9266.84
-9291.92
-9314.26
-9330.95
-9337.29
-9325.22
-9280
-9171.98
-8934.82
-8400.28
-7082.97
-7087.6
-8414.12
-8957.62
-9203.31
-9319.28
-9371.74
-9390.19
-9389.26
-9376.9
-9357.73
-9334.59
-9309.3
-9283.07
-9256.73
-9230.86
-9205.87
-9182.08
-9159.73
-9139.01
-9120.09
-9103.09
-9088.15
-9075.38
-9064.89
-9056.77
-9051.13
-9048.05
-9047.62
-9049.9
-9054.95
-9062.82
-9073.52
-9087.04
-9103.35
-9122.33
-9143.83
-9167.59
-9193.22
-9220.16
-9247.56
-9274.19
-9298.16
-9316.57
-9324.69
-9314.46
-9271.13
-9165.04
-8929.84
-8397.29
-7081.97
-7086.91
-8412.02
-8954.13
-9198.44
-9313.02
-9364.11
-9381.2
-9378.92
-9365.24
-9344.77
-9320.37
-9293.85
-9266.43
-9238.95
-9211.99
-9185.97
-9161.21
-9137.95
-9116.4
-9096.71
-9079.02
-9063.48
-9050.19
-9039.27
-9030.83
-9024.96
-9021.75
-9021.29
-9023.66
-9028.91
-9037.08
-9048.21
-9062.28
-9079.24
-9099
-9121.39
-9146.15
-9172.9
-9201.05
-9229.77
-9257.8
-9283.27
-9303.25
-9313.01
-9304.48
-9262.9
-9158.6
-8925.22
-8394.5
-7081.04
-7086.27
-8410.11
-8950.95
-9193.99
-9307.32
-9357.15
-9373
-9369.51
-9354.64
-9333
-9307.45
-9279.83
-9251.35
-9222.84
-9194.9
-9167.95
-9142.32
-9118.25
-9095.94
-9075.57
-9057.27
-9041.19
-9027.44
-9016.14
-9007.39
-9001.31
-8997.99
-8997.51
-8999.95
-9005.38
-9013.83
-9025.34
-9039.89
-9057.45
-9077.9
-9101.09
-9126.75
-9154.49
-9183.74
-9213.64
-9242.94
-9269.76
-9291.15
-9302.39
-9295.41
-9255.41
-9152.74
-8921.01
-8391.97
-7080.19
-7085.7
-8408.4
-8948.11
-9190.02
-9302.22
-9350.95
-9365.71
-9361.14
-9345.2
-9322.53
-9295.98
-9267.38
-9237.95
-9208.54
-9179.74
-9151.97
-9125.57
-9100.78
-9077.81
-9056.83
-9037.99
-9021.43
-9007.27
-8995.63
-8986.63
-8980.36
-8976.93
-8976.44
-8978.94
-8984.52
-8993.22
-9005.07
-9020.05
-9038.12
-9059.19
-9083.08
-9109.54
-9138.16
-9168.37
-9199.32
-9229.74
-9257.75
-9280.4
-9292.96
-9287.34
-9248.75
-9147.52
-8917.26
-8389.71
-7079.44
-7085.2
-8406.92
-8945.64
-9186.56
-9297.8
-9345.56
-9359.37
-9353.87
-9337.02
-9313.45
-9286.03
-9256.58
-9226.34
-9196.15
-9166.6
-9138.13
-9111.07
-9085.66
-9062.11
-9040.61
-9021.31
-9004.33
-8989.82
-8977.89
-8968.66
-8962.23
-8958.71
-8958.2
-8960.76
-8966.47
-8975.39
-8987.52
-9002.87
-9021.39
-9042.99
-9067.49
-9094.63
-9124.01
-9155.06
-9186.91
-9218.3
-9247.34
-9271.08
-9284.77
-9280.33
-9242.96
-9142.98
-8914.01
-8387.75
-7078.79
-7084.79
-8405.67
-8943.56
-9183.66
-9294.08
-9341.03
-9354.04
-9347.75
-9330.13
-9305.81
-9277.66
-9247.51
-9216.59
-9185.74
-9155.57
-9126.51
-9098.88
-9072.96
-9048.93
-9026.99
-9007.29
-8989.97
-8975.16
-8962.99
-8953.57
-8947.01
-8943.41
-8942.88
-8945.49
-8951.32
-8960.41
-8972.78
-8988.44
-9007.34
-9029.38
-9054.39
-9082.1
-9112.12
-9143.87
-9176.47
-9208.68
-9238.58
-9263.23
-9277.88
-9274.44
-9238.09
-9139.17
-8911.27
-8386.1
-7078.24
-7084.45
-8404.66
-8941.88
-9181.32
-9291.07
-9337.38
-9349.74
-9342.83
-9324.59
-9299.67
-9270.93
-9240.21
-9208.74
-9177.37
-9146.69
-9117.15
-9089.08
-9062.74
-9038.33
-9016.04
-8996.02
-8978.42
-8963.37
-8951
-8941.43
-8934.76
-8931.1
-8930.56
-8933.21
-8939.12
-8948.35
-8960.92
-8976.83
-8996.03
-9018.43
-9043.84
-9072.02
-9102.55
-9134.86
-9168.08
-9200.94
-9231.54
-9256.92
-9272.34
-9269.69
-9234.17
-9136.1
-8909.06
-8384.77
-7077.79
-7084.2
-8403.9
-8940.62
-9179.55
-9288.81
-9334.63
-9346.51
-9339.11
-9320.41
-9295.03
-9265.85
-9234.7
-9202.82
-9171.06
-9140
-9110.11
-9081.7
-9055.04
-9030.34
-9007.78
-8987.53
-8969.72
-8954.49
-8941.97
-8932.28
-8925.53
-8921.83
-8921.28
-8923.96
-8929.94
-8939.28
-8951.99
-8968.09
-8987.51
-9010.18
-9035.9
-9064.42
-9095.34
-9128.07
-9161.75
-9195.1
-9226.22
-9252.16
-9268.16
-9266.11
-9231.22
-9133.78
-8907.4
-8383.77
-7077.46
-7084.03
-8403.39
-8939.77
-9178.37
-9287.3
-9332.79
-9344.34
-9336.63
-9317.61
-9291.94
-9262.46
-9231.03
-9198.87
-9166.84
-9135.53
-9105.4
-9076.76
-9049.89
-9025
-9002.27
-8981.85
-8963.9
-8948.56
-8935.94
-8926.17
-8919.37
-8915.64
-8915.08
-8917.77
-8923.8
-8933.21
-8946.02
-8962.24
-8981.82
-9004.66
-9030.59
-9059.35
-9090.52
-9123.53
-9157.52
-9191.2
-9222.67
-9248.98
-9265.36
-9263.72
-9229.24
-9132.23
-8906.28
-8383.1
-7077.23
-7083.94
-8403.14
-8939.35
-9177.78
-9286.54
-9331.86
-9343.26
-9335.39
-9316.22
-9290.38
-9260.76
-9229.18
-9196.89
-9164.72
-9133.29
-9103.04
-9074.29
-9047.32
-9022.33
-8999.5
-8979.01
-8960.99
-8945.58
-8932.92
-8923.11
-8916.28
-8912.53
-8911.97
-8914.68
-8920.73
-8930.17
-8943.03
-8959.31
-8978.97
-9001.9
-9027.93
-9056.8
-9088.11
-9121.26
-9155.4
-9189.25
-9220.89
-9247.38
-9263.96
-9262.52
-9228.25
-9131.46
-8905.73
-8382.77
-7077.12
-7083.94
-8403.14
-8939.35
-9177.78
-9286.54
-9331.86
-9343.26
-9335.39
-9316.22
-9290.38
-9260.76
-9229.18
-9196.89
-9164.72
-9133.29
-9103.04
-9074.29
-9047.32
-9022.33
-8999.5
-8979.01
-8960.99
-8945.59
-8932.92
-8923.11
-8916.28
-8912.54
-8911.97
-8914.68
-8920.73
-8930.17
-8943.03
-8959.31
-8978.97
-9001.9
-9027.93
-9056.8
-9088.11
-9121.26
-9155.4
-9189.25
-9220.89
-9247.39
-9263.96
-9262.52
-9228.25
-9131.46
-8905.73
-8382.77
-7077.12
-7084.03
-8403.39
-8939.77
-9178.37
-9287.3
-9332.78
-9344.34
-9336.63
-9317.61
-9291.94
-9262.46
-9231.03
-9198.87
-9166.84
-9135.53
-9105.4
-9076.76
-9049.89
-9025
-9002.27
-8981.86
-8963.91
-8948.56
-8935.94
-8926.17
-8919.37
-8915.64
-8915.08
-8917.78
-8923.8
-8933.21
-8946.03
-8962.25
-8981.82
-9004.67
-9030.6
-9059.35
-9090.53
-9123.54
-9157.52
-9191.2
-9222.68
-9248.98
-9265.37
-9263.73
-9229.24
-9132.23
-8906.28
-8383.1
-7077.23
-7084.2
-8403.9
-8940.62
-9179.55
-9288.81
-9334.63
-9346.51
-9339.11
-9320.41
-9295.03
-9265.85
-9234.7
-9202.82
-9171.06
-9140.01
-9110.11
-9081.7
-9055.04
-9030.34
-9007.79
-8987.53
-8969.72
-8954.5
-8941.98
-8932.29
-8925.54
-8921.84
-8921.29
-8923.97
-8929.95
-8939.28
-8952
-8968.09
-8987.52
-9010.18
-9035.91
-9064.43
-9095.35
-9128.08
-9161.76
-9195.11
-9226.23
-9252.17
-9268.16
-9266.12
-9231.22
-9133.79
-8907.4
-8383.77
-7077.46
-7084.45
-8404.66
-8941.88
-9181.32
-9291.07
-9337.38
-9349.74
-9342.83
-9324.59
-9299.67
-9270.93
-9240.21
-9208.74
-9177.37
-9146.69
-9117.16
-9089.08
-9062.74
-9038.33
-9016.04
-8996.02
-8978.43
-8963.38
-8951.01
-8941.43
-8934.77
-8931.11
-8930.57
-8933.22
-8939.13
-8948.36
-8960.93
-8976.84
-8996.04
-9018.44
-9043.85
-9072.03
-9102.56
-9134.87
-9168.09
-9200.95
-9231.55
-9256.93
-9272.35
-9269.7
-9234.18
-9136.1
-8909.06
-8384.78
-7077.79
-7084.79
-8405.67
-8943.56
-9183.66
-9294.07
-9341.03
-9354.04
-9347.75
-9330.13
-9305.81
-9277.66
-9247.51
-9216.59
-9185.75
-9155.57
-9126.51
-9098.89
-9072.96
-9048.94
-9027
-9007.3
-8989.98
-8975.17
-8963
-8953.57
-8947.02
-8943.42
-8942.89
-8945.51
-8951.33
-8960.42
-8972.8
-8988.46
-9007.35
-9029.39
-9054.4
-9082.12
-9112.14
-9143.88
-9176.49
-9208.7
-9238.6
-9263.25
-9277.9
-9274.45
-9238.1
-9139.18
-8911.27
-8386.11
-7078.24
-7085.2
-8406.92
-8945.64
-9186.56
-9297.8
-9345.56
-9359.37
-9353.87
-9337.02
-9313.45
-9286.03
-9256.58
-9226.35
-9196.16
-9166.61
-9138.14
-9111.07
-9085.66
-9062.12
-9040.62
-9021.31
-9004.34
-8989.83
-8977.9
-8968.67
-8962.24
-8958.72
-8958.21
-8960.77
-8966.49
-8975.4
-8987.53
-9002.89
-9021.41
-9043
-9067.5
-9094.64
-9124.03
-9155.07
-9186.92
-9218.32
-9247.36
-9271.09
-9284.78
-9280.35
-9242.97
-9142.99
-8914.01
-8387.76
-7078.79
-7085.7
-8408.4
-8948.11
-9190.01
-9302.22
-9350.95
-9365.71
-9361.14
-9345.2
-9322.53
-9295.98
-9267.38
-9237.96
-9208.55
-9179.74
-9151.98
-9125.58
-9100.79
-9077.82
-9056.84
-9038
-9021.44
-9007.28
-8995.64
-8986.64
-8980.38
-8976.95
-8976.45
-8978.96
-8984.54
-8993.24
-9005.09
-9020.07
-9038.14
-9059.21
-9083.1
-9109.56
-9138.18
-9168.39
-9199.34
-9229.76
-9257.77
-9280.42
-9292.98
-9287.35
-9248.76
-9147.53
-8917.27
-8389.72
-7079.44
-7086.27
-8410.11
-8950.95
-9193.99
-9307.31
-9357.15
-9373
-9369.51
-9354.64
-9333
-9307.46
-9279.83
-9251.35
-9222.85
-9194.91
-9167.96
-9142.33
-9118.26
-9095.95
-9075.58
-9057.28
-9041.2
-9027.45
-9016.15
-9007.41
-9001.33
-8998
-8997.52
-8999.97
-9005.39
-9013.85
-9025.36
-9039.92
-9057.47
-9077.92
-9101.11
-9126.77
-9154.52
-9183.76
-9213.66
-9242.97
-9269.78
-9291.17
-9302.41
-9295.43
-9255.43
-9152.75
-8921.02
-8391.97
-7080.2
-7086.91
-8412.02
-8954.13
-9198.44
-9313.02
-9364.11
-9381.19
-9378.92
-9365.24
-9344.77
-9320.37
-9293.85
-9266.44
-9238.96
-9211.99
-9185.97
-9161.21
-9137.96
-9116.4
-9096.71
-9079.03
-9063.49
-9050.21
-9039.29
-9030.84
-9024.97
-9021.77
-9021.31
-9023.68
-9028.93
-9037.11
-9048.23
-9062.3
-9079.27
-9099.03
-9121.42
-9146.18
-9172.92
-9201.07
-9229.79
-9257.83
-9283.3
-9303.27
-9313.03
-9304.5
-9262.92
-9158.62
-8925.23
-8394.51
-7081.04
-7087.6
-8414.12
-8957.62
-9203.31
-9319.28
-9371.74
-9390.19
-9389.26
-9376.9
-9357.73
-9334.59
-9309.3
-9283.08
-9256.74
-9230.86
-9205.88
-9182.09
-9159.74
-9139.02
-9120.1
-9103.1
-9088.16
-9075.39
-9064.9
-9056.79
-9051.15
-9048.07
-9047.64
-9049.92
-9054.97
-9062.84
-9073.54
-9087.07
-9103.38
-9122.36
-9143.86
-9167.62
-9193.25
-9220.19
-9247.59
-9274.22
-9298.19
-9316.59
-9324.71
-9314.49
-9271.15
-9165.06
-8929.86
-8397.29
-7081.97
-7088.35
-8416.35
-8961.34
-9208.52
-9325.98
-9379.92
-9399.84
-9400.38
-9389.46
-9371.71
-9349.95
-9326.01
-9301.08
-9275.99
-9251.32
-9227.46
-9204.74
-9183.39
-9163.6
-9145.51
-9129.27
-9114.99
-9102.79
-9092.76
-9085.01
-9079.62
-9076.69
-9076.28
-9078.47
-9083.3
-9090.83
-9101.06
-9113.99
-9129.57
-9147.71
-9168.23
-9190.89
-9215.3
-9240.9
-9266.87
-9291.95
-9314.29
-9330.98
-9337.32
-9325.25
-9280.02
-9171.99
-8934.83
-8400.28
-7082.97
-7089.12
-8418.67
-8965.21
-9213.95
-9332.97
-9388.48
-9409.97
-9412.06
-9402.68
-9386.45
-9366.19
-9343.7
-9320.18
-9296.45
-9273.07
-9250.45
-9228.89
-9208.62
-9189.83
-9172.65
-9157.23
-9143.67
-9132.08
-9122.56
-9115.2
-9110.09
-9107.31
-9106.92
-9109.01
-9113.61
-9120.76
-9130.49
-9142.77
-9157.56
-9174.77
-9194.23
-9215.69
-9238.78
-9262.94
-9287.35
-9310.77
-9331.35
-9346.21
-9350.63
-9336.59
-9289.35
-9179.29
-8940.05
-8403.42
-7084.01
-7089.89
-8420.98
-8969.08
-9219.4
-9340.02
-9397.14
-9420.26
-9423.98
-9416.24
-9401.62
-9382.95
-9362.01
-9340
-9317.72
-9295.74
-9274.44
-9254.13
-9235.02
-9217.3
-9201.1
-9186.56
-9173.77
-9162.85
-9153.87
-9146.93
-9142.12
-9139.5
-9139.14
-9141.11
-9145.46
-9152.21
-9161.39
-9172.97
-9186.91
-9203.12
-9221.44
-9241.63
-9263.3
-9285.91
-9308.65
-9330.31
-9349.03
-9361.93
-9364.35
-9348.25
-9298.92
-9186.74
-8945.38
-8406.62
-7085.08
-7090.61
-8423.17
-8972.76
-9224.6
-9346.78
-9405.52
-9430.29
-9435.68
-9429.63
-9416.69
-9399.69
-9380.39
-9359.98
-9339.25
-9318.74
-9298.86
-9279.87
-9262.01
-9245.43
-9230.28
-9216.67
-9204.71
-9194.49
-9186.09
-9179.61
-9175.1
-9172.66
-9172.33
-9174.18
-9178.25
-9184.57
-9193.16
-9204
-9217.04
-9232.19
-9249.29
-9268.11
-9288.28
-9309.25
-9330.24
-9350.03
-9366.79
-9377.68
-9378.02
-9359.82
-9308.36
-9194.07
-8950.6
-8409.74
-7086.12
-7091.22
-8425.02
-8975.89
-9229.1
-9352.74
-9413.01
-9439.39
-9446.46
-9442.12
-9430.92
-9415.64
-9398.06
-9379.32
-9360.21
-9341.27
-9322.87
-9305.29
-9288.74
-9273.38
-9259.33
-9246.72
-9235.63
-9226.15
-9218.37
-9212.36
-9208.19
-9205.92
-9205.62
-9207.34
-9211.12
-9216.99
-9224.95
-9235
-9247.08
-9261.11
-9276.93
-9294.31
-9312.89
-9332.15
-9351.3
-9369.16
-9383.91
-9392.73
-9390.97
-9370.67
-9317.15
-9200.82
-8955.36
-8412.58
-7087.06
-7091.61
-8426.2
-8977.97
-9232.22
-9357.06
-9418.69
-9446.57
-9455.26
-9452.61
-9443.15
-9429.65
-9413.83
-9396.83
-9379.42
-9362.11
-9345.27
-9329.16
-9313.99
-9299.9
-9287.02
-9275.45
-9265.28
-9256.58
-9249.44
-9243.93
-9240.11
-9238.03
-9237.76
-9239.35
-9242.82
-9248.2
-9255.51
-9264.72
-9275.8
-9288.65
-9303.12
-9319
-9335.93
-9353.41
-9370.66
-9386.53
-9399.24
-9405.99
-9402.18
-9379.88
-9324.43
-9206.29
-8959.15
-8414.79
-7087.79
-7091.57
-8426.17
-8978.13
-9232.83
-9358.42
-9421.08
-9450.24
-9460.4
-9459.38
-9451.65
-9439.92
-9425.9
-9410.69
-9395.03
-9379.42
-9364.2
-9349.63
-9335.9
-9323.14
-9311.48
-9300.99
-9291.78
-9283.9
-9277.44
-9272.45
-9268.99
-9267.11
-9266.87
-9268.31
-9271.45
-9276.33
-9282.95
-9291.3
-9301.32
-9312.94
-9326.02
-9340.34
-9355.56
-9371.21
-9386.52
-9400.39
-9411.07
-9415.8
-9410.05
-9385.95
-9328.88
-9209.36
-8961.1
-8415.84
-7088.12
-7090.8
-8423.98
-8974.9
-9229.06
-9354.63
-9417.78
-9447.84
-9459.24
-9459.71
-9453.63
-9443.67
-9431.46
-9418.07
-9404.21
-9390.34
-9376.81
-9363.83
-9351.59
-9340.21
-9329.81
-9320.46
-9312.24
-9305.21
-9299.45
-9294.99
-9291.91
-9290.24
-9290.03
-9291.31
-9294.12
-9298.48
-9304.38
-9311.83
-9320.76
-9331.11
-9342.74
-9355.45
-9368.92
-9382.7
-9396.06
-9407.94
-9416.64
-9419.48
-9412.02
-9386.45
-9328.3
-9208.13
-8959.71
-8414.78
-7087.72
-7088.68
-8417.92
-8965.64
-9217.57
-9341.9
-9404.68
-9435.08
-9447.36
-9449.09
-9444.56
-9436.3
-9425.89
-9414.34
-9402.31
-9390.23
-9378.42
-9367.09
-9356.39
-9346.44
-9337.33
-9329.15
-9321.96
-9315.82
-9310.77
-9306.88
-9304.18
-9302.72
-9302.53
-9303.66
-9306.12
-9309.94
-9315.1
-9321.61
-9329.42
-9338.46
-9348.6
-9359.67
-9371.36
-9383.25
-9394.67
-9404.6
-9411.43
-9412.59
-9403.75
-9377.29
-9318.88
-9199.27
-8952.36
-8409.87
-7085.99
-7084.01
-8404.61
-8945.33
-9192.22
-9313.36
-9374.47
-9404.37
-9417.02
-9419.71
-9416.54
-9409.9
-9401.26
-9391.55
-9381.37
-9371.12
-9361.07
-9351.41
-9342.29
-9333.81
-9326.04
-9319.07
-9312.93
-9307.69
-9303.38
-9300.06
-9297.76
-9296.52
-9296.36
-9297.32
-9299.43
-9302.68
-9307.09
-9312.64
-9319.29
-9326.99
-9335.62
-9345.01
-9354.9
-9364.9
-9374.41
-9382.47
-9387.6
-9387.37
-9377.66
-9351.11
-9293.72
-9176.61
-8934
-8397.74
-7081.72
-7074.15
-8376.87
-8903.63
-9140.73
-9255.62
-9313.17
-9341.44
-9353.76
-9357.02
-9354.99
-9349.85
-9342.92
-9335.04
-9326.71
-9318.3
-9310.05
-9302.1
-9294.6
-9287.61
-9281.22
-9275.47
-9270.42
-9266.1
-9262.55
-9259.82
-9257.92
-9256.9
-9256.77
-9257.57
-9259.3
-9261.98
-9265.61
-9270.18
-9275.66
-9281.99
-9289.07
-9296.77
-9304.86
-9312.98
-9320.62
-9326.93
-9330.58
-9329.35
-9319.44
-9293.94
-9239.46
-9127.89
-8894.31
-8371.22
-7072.26
-7052.51
-8317.84
-8817.43
-9036.68
-9140.64
-9191.96
-9217.07
-9228.22
-9231.57
-9230.41
-9226.63
-9221.36
-9215.26
-9208.8
-9202.25
-9195.81
-9189.61
-9183.74
-9178.28
-9173.28
-9168.79
-9164.84
-9161.46
-9158.69
-9156.55
-9155.07
-9154.27
-9154.17
-9154.79
-9156.15
-9158.24
-9161.08
-9164.65
-9168.93
-9173.87
-9179.4
-9185.39
-9191.67
-9197.95
-9203.78
-9208.48
-9210.89
-9209.14
-9199.88
-9176.93
-9128
-9026.64
-8810.14
-8313.42
-7051.03
-6999.95
-8182.95
-8629.54
-8817.39
-8903.51
-8945.08
-8965.21
-8974.22
-8977.13
-8976.57
-8974.01
-8970.31
-8965.99
-8961.38
-8956.7
-8952.09
-8947.65
-8943.44
-8939.53
-8935.94
-8932.72
-8929.88
-8927.46
-8925.48
-8923.94
-8922.88
-8922.31
-8922.24
-8922.68
-8923.65
-8925.16
-8927.19
-8929.75
-8932.82
-8936.36
-8940.31
-8944.6
-8949.07
-8953.53
-8957.63
-8960.85
-8962.31
-8960.54
-8952.88
-8934.3
-8894.45
-8810.19
-8624.31
-8179.78
-6998.89
-6850.58
-7839.9
-8182.94
-8317.8
-8376.78
-8404.44
-8417.63
-8423.54
-8425.53
-8425.32
-8423.84
-8421.65
-8419.08
-8416.31
-8413.51
-8410.73
-8408.06
-8405.54
-8403.18
-8401.03
-8399.09
-8397.38
-8395.93
-8394.73
-8393.81
-8393.17
-8392.82
-8392.78
-8393.05
-8393.64
-8394.54
-8395.77
-8397.31
-8399.15
-8401.28
-8403.65
-8406.22
-8408.9
-8411.56
-8413.99
-8415.86
-8416.62
-8415.32
-8410.22
-8397.95
-8371.33
-8313.47
-8179.79
-7837.99
-6849.94
-6333.96
-6850.58
-6999.95
-7052.49
-7074.12
-7083.95
-7088.58
-7090.65
-7091.36
-7091.31
-7090.83
-7090.1
-7089.24
-7088.33
-7087.39
-7086.47
-7085.57
-7084.73
-7083.95
-7083.23
-7082.58
-7082.01
-7081.53
-7081.13
-7080.82
-7080.61
-7080.49
-7080.48
-7080.57
-7080.76
-7081.06
-7081.47
-7081.99
-7082.6
-7083.31
-7084.1
-7084.96
-7085.85
-7086.74
-7087.54
-7088.15
-7088.38
-7087.9
-7086.11
-7081.79
-7072.3
-7051.05
-6998.9
-6849.94
-6333.75
-1401.86
-2230.15
-2523.85
-2646.39
-2704.51
-2734.74
-2751.46
-2761.05
-2766.62
-2769.81
-2771.54
-2772.35
-2772.59
-2772.47
-2772.11
-2771.63
-2771.07
-2770.49
-2769.9
-2769.34
-2768.82
-2768.36
-2767.95
-2767.61
-2767.34
-2767.15
-2767.04
-2767.01
-2767.07
-2767.2
-2767.42
-2767.7
-2768.04
-2768.42
-2768.81
-2769.18
-2769.46
-2769.57
-2769.35
-2768.61
-2766.99
-2763.97
-2758.6
-2749.25
-2732.8
-2702.88
-2645.1
-2522.91
-2229.58
-1401.67
-2230.15
-3939.94
-4651.58
-4976.48
-5138.12
-5224.35
-5272.72
-5300.67
-5316.96
-5326.3
-5331.37
-5333.75
-5334.42
-5334.02
-5332.95
-5331.48
-5329.81
-5328.05
-5326.3
-5324.62
-5323.06
-5321.66
-5320.43
-5319.41
-5318.61
-5318.04
-5317.71
-5317.62
-5317.79
-5318.19
-5318.82
-5319.67
-5320.69
-5321.84
-5323.03
-5324.14
-5325
-5325.33
-5324.73
-5322.56
-5317.85
-5308.99
-5293.3
-5266.08
-5218.55
-5133.24
-4972.6
-4648.75
-3938.22
-2229.57
-2523.86
-4651.59
-5611.07
-6076.26
-6317.55
-6449.86
-6525.41
-6569.56
-6595.47
-6610.37
-6618.44
-6622.19
-6623.19
-6622.44
-6620.62
-6618.15
-6615.34
-6612.41
-6609.49
-6606.69
-6604.1
-6601.76
-6599.73
-6598.03
-6596.7
-6595.75
-6595.2
-6595.05
-6595.32
-6596
-6597.05
-6598.46
-6600.17
-6602.09
-6604.09
-6605.96
-6607.43
-6608.06
-6607.18
-6603.78
-6596.3
-6582.21
-6557.31
-6514.37
-6440.21
-6309.42
-6069.8
-5606.38
-4648.74
-2522.9
-2646.41
-4976.52
-6076.3
-6631.73
-6929.46
-7096.81
-7194.04
-7251.54
-7285.53
-7305.13
-7315.7
-7320.53
-7321.69
-7320.51
-7317.87
-7314.38
-7310.43
-7306.31
-7302.23
-7298.32
-7294.7
-7291.43
-7288.59
-7286.23
-7284.36
-7283.04
-7282.27
-7282.07
-7282.45
-7283.39
-7284.87
-7286.85
-7289.24
-7291.94
-7294.76
-7297.43
-7299.57
-7300.59
-7299.59
-7295.26
-7285.5
-7267.03
-7234.46
-7178.64
-7083.34
-6918.13
-6622.72
-6069.75
-4972.54
-2645.07
-2704.54
-5138.2
-6317.65
-6929.54
-7265.53
-7458.13
-7571.73
-7639.62
-7680
-7703.31
-7715.82
-7721.39
-7722.51
-7720.77
-7717.26
-7712.7
-7707.59
-7702.29
-7697.05
-7692.04
-7687.39
-7683.21
-7679.58
-7676.55
-7674.16
-7672.47
-7671.49
-7671.24
-7671.72
-7672.93
-7674.83
-7677.37
-7680.45
-7683.94
-7687.6
-7691.11
-7693.98
-7695.51
-7694.61
-7689.66
-7678.2
-7656.33
-7617.77
-7552.04
-7440.9
-7251.04
-6918.02
-6309.28
-5133.12
-2702.83
-2734.79
-5224.51
-6450.08
-7097.03
-7458.29
-7668.44
-7793.85
-7869.42
-7914.56
-7940.61
-7954.46
-7960.42
-7961.27
-7958.85
-7954.4
-7948.74
-7942.46
-7935.98
-7929.58
-7923.48
-7917.83
-7912.74
-7908.33
-7904.64
-7901.75
-7899.69
-7898.5
-7898.2
-7898.79
-7900.26
-7902.58
-7905.68
-7909.46
-7913.73
-7918.26
-7922.64
-7926.32
-7928.48
-7927.89
-7922.7
-7910.12
-7885.82
-7842.88
-7769.94
-7647.53
-7440.7
-7083.04
-6439.92
-5218.34
-2732.72
-2751.55
-5272.97
-6525.79
-7194.49
-7572.15
-7794.13
-7927.71
-8008.67
-8057.15
-8085.04
-8099.67
-8105.67
-8106.05
-8102.83
-8097.36
-8090.58
-8083.12
-8075.46
-8067.92
-8060.73
-8054.09
-8048.12
-8042.94
-8038.62
-8035.22
-8032.81
-8031.41
-8031.06
-8031.76
-8033.49
-8036.23
-8039.89
-8044.35
-8049.43
-8054.83
-8060.12
-8064.69
-8067.6
-8067.52
-8062.43
-8049.29
-8023.45
-7977.55
-7899.67
-7769.6
-7551.52
-7178.08
-6513.87
-5265.74
-2749.13
-2761.19
-5301.06
-6570.16
-7252.28
-7640.39
-7870.09
-8009.09
-8093.62
-8144.24
-8173.21
-8188.13
-8193.86
-8193.59
-8189.46
-8182.92
-8174.98
-8166.34
-8157.5
-8148.83
-8140.59
-8132.98
-8126.15
-8120.21
-8115.27
-8111.39
-8108.63
-8107.03
-8106.63
-8107.43
-8109.43
-8112.57
-8116.79
-8121.94
-8127.81
-8134.1
-8140.34
-8145.84
-8149.63
-8150.24
-8145.55
-8132.34
-8105.71
-8058.05
-7977.03
-7842.05
-7616.81
-7233.53
-6556.54
-5292.79
-2758.42
-2766.82
-5317.53
-6596.36
-7286.66
-7681.25
-7915.78
-8058.17
-8144.87
-8196.68
-8226.1
-8240.9
-8246.1
-8245.01
-8239.88
-8232.23
-8223.11
-8213.29
-8203.3
-8193.53
-8184.26
-8175.7
-8168.03
-8161.36
-8155.81
-8151.45
-8148.36
-8146.57
-8146.13
-8147.03
-8149.28
-8152.83
-8157.59
-8163.42
-8170.09
-8177.27
-8184.47
-8190.96
-8195.71
-8197.18
-8193.14
-8180.25
-8153.47
-8104.97
-8022.21
-7884.34
-7654.8
-7265.63
-6581.08
-5308.26
-2763.71
-2770.08
-5327.09
-6611.62
-7306.74
-7705.16
-7942.53
-8086.84
-8174.67
-8226.96
-8256.32
-8270.68
-8275.15
-8273.13
-8266.93
-8258.13
-8247.85
-8236.86
-8225.74
-8214.88
-8204.61
-8195.13
-8186.64
-8179.28
-8173.14
-8168.33
-8164.91
-8162.94
-8162.45
-8163.46
-8165.95
-8169.89
-8175.19
-8181.68
-8189.14
-8197.21
-8205.38
-8212.9
-8218.67
-8221.12
-8217.93
-8205.69
-8179.23
-8130.6
-8047.13
-7907.8
-7675.95
-7283.52
-6594.74
-5316.85
-2766.64
-2771.89
-5332.42
-6620.11
-7317.9
-7718.4
-7957.24
-8102.43
-8190.63
-8242.86
-8271.82
-8285.49
-8289.08
-8286.04
-8278.72
-8268.77
-8257.32
-8245.19
-8232.96
-8221.07
-8209.82
-8199.47
-8190.19
-8182.15
-8175.45
-8170.2
-8166.47
-8164.32
-8163.79
-8164.9
-8167.64
-8171.96
-8177.77
-8184.91
-8193.14
-8202.1
-8211.24
-8219.79
-8226.63
-8230.14
-8227.96
-8216.59
-8190.81
-8142.57
-8059.12
-7919.36
-7686.55
-7292.57
-6601.71
-5321.25
-2768.15
-2772.81
-5335.1
-6624.36
-7323.43
-7724.84
-7964.22
-8109.59
-8197.64
-8249.43
-8277.71
-8290.53
-8293.13
-8289.02
-8280.58
-8269.48
-8256.89
-8243.65
-8230.35
-8217.45
-8205.27
-8194.08
-8184.05
-8175.36
-8168.13
-8162.46
-8158.44
-8156.12
-8155.55
-8156.76
-8159.72
-8164.41
-8170.71
-8178.48
-8187.46
-8197.28
-8207.38
-8216.97
-8224.9
-8229.53
-8228.43
-8218.1
-8193.24
-8145.76
-8062.85
-7923.34
-7690.46
-7296.09
-6604.5
-5323.05
-2768.77
-2773.17
-5336.13
-6625.94
-7325.38
-7726.96
-7966.27
-8111.34
-8198.88
-8249.97
-8277.41
-8289.27
-8290.83
-8285.62
-8276.06
-8263.83
-8250.14
-8235.82
-8221.51
-8207.65
-8194.59
-8182.59
-8171.85
-8162.55
-8154.81
-8148.75
-8144.44
-8141.96
-8141.36
-8142.66
-8145.84
-8150.87
-8157.66
-8166.03
-8175.73
-8186.38
-8197.41
-8208.02
-8217.04
-8222.79
-8222.85
-8213.65
-8189.88
-8143.39
-8061.34
-7922.54
-7690.19
-7296.14
-6604.7
-5323.24
-2768.85
-2773.17
-5336.12
-6625.85
-7325.1
-7726.36
-7965.21
-8109.68
-8196.48
-8246.72
-8273.22
-8284.07
-8284.56
-8278.26
-8267.6
-8254.29
-8239.53
-8224.2
-8208.91
-8194.15
-8180.25
-8167.5
-8156.09
-8146.22
-8138
-8131.56
-8126.99
-8124.37
-8123.73
-8125.11
-8128.51
-8133.87
-8141.1
-8150.04
-8160.43
-8171.88
-8183.81
-8195.4
-8205.49
-8212.36
-8213.58
-8205.56
-8182.95
-8137.6
-8056.62
-7918.81
-7687.34
-7294.08
-6603.31
-5322.44
-2768.59
-2772.97
-5335.49
-6624.75
-7323.47
-7724.12
-7962.27
-8105.95
-8191.89
-8241.21
-8266.72
-8276.54
-8275.98
-8268.61
-8256.9
-8242.56
-8226.8
-8210.5
-8194.31
-8178.69
-8164.02
-8150.56
-8138.53
-8128.11
-8119.45
-8112.67
-8107.85
-8105.09
-8104.42
-8105.88
-8109.47
-8115.14
-8122.8
-8132.27
-8143.31
-8155.5
-8168.29
-8180.83
-8191.93
-8199.9
-8202.26
-8195.42
-8174.01
-8129.85
-8050.05
-7913.38
-7683
-7290.78
-6601
-5321.08
-2768.14
-2772.64
-5334.5
-6623.08
-7321.07
-7720.95
-7958.28
-8101.1
-8186.11
-8234.47
-8259
-8267.81
-8266.23
-8257.86
-8245.15
-8229.84
-8213.14
-8195.95
-8178.91
-8162.51
-8147.11
-8133
-8120.39
-8109.48
-8100.41
-8093.31
-8088.27
-8085.37
-8084.67
-8086.21
-8089.98
-8095.93