/*--------------------------------*- C++ -*----------------------------------*\
| =========                 |                                                 |
| \\      /  F ield         | OpenFOAM: The Open Source CFD Toolbox           |
|  \\    /   O peration     | Version:  5.x                                   |
|   \\  /    A nd           | Web:      www.OpenFOAM.org                      |
|    \\/     M anipulation  |                                                 |
\*---------------------------------------------------------------------------*/
FoamFile
{
    version     2.0;
    format      ascii;
    class       volScalarField;
    location    "1.5";
    object      T;
}
// * * * * * * * * * * * * * * * * * * * * * * * * * * * * * * * * * * * * * //

dimensions      [0 0 0 1 0 0 0];

internalField   nonuniform List<scalar> 
25000
(
300.736
301.379
301.761
302.034
302.252
302.436
302.597
302.741
302.872
302.992
303.103
303.206
303.301
303.39
303.473
303.55
303.621
303.686
303.746
303.799
303.847
303.888
303.923
303.952
303.974
303.989
303.997
303.997
303.99
303.975
303.951
303.92
303.88
303.83
303.772
303.705
303.627
303.54
303.442
303.334
303.214
303.081
302.934
302.771
302.588
302.38
302.136
301.834
301.424
300.751
301.379
302.953
304.006
304.798
305.439
305.985
306.464
306.893
307.284
307.643
307.975
308.283
308.569
308.836
309.084
309.314
309.527
309.722
309.9
310.06
310.203
310.327
310.432
310.518
310.583
310.628
310.652
310.653
310.631
310.586
310.516
310.421
310.301
310.154
309.979
309.777
309.546
309.285
308.992
308.667
308.308
307.911
307.472
306.986
306.441
305.823
305.103
304.227
303.087
301.424
301.76
304.005
305.616
306.872
307.909
308.801
309.588
310.297
310.943
311.537
312.086
312.597
313.073
313.516
313.928
314.31
314.663
314.987
315.283
315.549
315.786
315.992
316.166
316.309
316.418
316.493
316.532
316.534
316.498
316.423
316.307
316.15
315.949
315.705
315.416
315.079
314.695
314.262
313.777
313.238
312.642
311.985
311.259
310.455
309.559
308.547
307.378
305.983
304.228
301.835
302.033
304.795
306.869
308.534
309.936
311.153
312.235
313.212
314.106
314.93
315.693
316.403
317.064
317.681
318.254
318.786
319.278
319.73
320.142
320.513
320.843
321.13
321.373
321.572
321.724
321.828
321.883
321.886
321.836
321.731
321.57
321.351
321.072
320.732
320.328
319.861
319.326
318.723
318.048
317.3
316.472
315.56
314.554
313.444
312.21
310.824
309.241
307.381
305.106
302.137
302.25
305.433
307.901
309.929
311.661
313.182
314.542
315.777
316.91
317.956
318.927
319.831
320.674
321.46
322.192
322.871
323.499
324.077
324.603
325.077
325.498
325.865
326.176
326.43
326.625
326.758
326.828
326.832
326.768
326.635
326.429
326.149
325.793
325.358
324.844
324.247
323.565
322.795
321.936
320.982
319.928
318.769
317.494
316.089
314.534
312.798
310.832
308.557
305.831
302.383
302.432
305.973
308.784
311.135
313.169
314.97
316.593
318.072
319.433
320.693
321.865
322.957
323.977
324.928
325.814
326.637
327.399
328.098
328.736
329.311
329.822
330.268
330.645
330.954
331.19
331.352
331.436
331.441
331.364
331.202
330.953
330.614
330.183
329.656
329.033
328.31
327.484
326.553
325.513
324.36
323.089
321.691
320.157
318.471
316.613
314.55
312.232
309.58
306.456
302.594
302.59
306.444
309.558
312.2
314.51
316.571
318.439
320.149
321.728
323.192
324.557
325.83
327.02
328.132
329.167
330.13
331.021
331.84
332.587
333.26
333.858
334.38
334.823
335.184
335.461
335.651
335.75
335.756
335.666
335.477
335.186
334.789
334.284
333.669
332.939
332.094
331.129
330.042
328.828
327.483
326.002
324.375
322.594
320.642
318.497
316.129
313.487
310.492
307.01
302.78
302.73
306.863
310.249
313.154
315.716
318.019
320.116
322.043
323.827
325.487
327.035
328.483
329.836
331.102
332.282
333.38
334.396
335.33
336.182
336.951
337.634
338.23
338.736
339.148
339.465
339.682
339.796
339.803
339.701
339.485
339.153
338.7
338.125
337.423
336.592
335.629
334.529
333.291
331.91
330.382
328.699
326.855
324.838
322.634
320.222
317.568
314.625
311.317
307.51
302.947
302.856
307.239
310.872
314.017
316.811
319.337
321.647
323.778
325.756
327.6
329.324
330.937
332.448
333.861
335.18
336.407
337.543
338.589
339.542
340.403
341.168
341.836
342.402
342.865
343.219
343.463
343.591
343.6
343.486
343.244
342.873
342.367
341.723
340.939
340.01
338.933
337.705
336.323
334.782
333.077
331.203
329.152
326.914
324.472
321.807
318.888
315.667
312.07
307.965
303.1
302.971
307.581
311.438
314.803
317.81
320.542
323.051
325.373
327.533
329.551
331.44
333.21
334.87
336.423
337.875
339.226
340.477
341.629
342.681
343.629
344.473
345.21
345.835
346.345
346.737
347.005
347.147
347.157
347.032
346.767
346.358
345.801
345.092
344.228
343.206
342.021
340.67
339.15
337.457
335.586
333.531
331.284
328.836
326.172
323.271
320.104
316.626
312.761
308.383
303.239
303.075
307.892
311.954
315.52
318.724
321.646
324.339
326.838
329.169
331.35
333.395
335.314
337.115
338.802
340.379
341.847
343.209
344.462
345.606
346.639
347.558
348.36
349.041
349.597
350.024
350.317
350.472
350.484
350.348
350.06
349.615
349.01
348.239
347.3
346.189
344.901
343.434
341.784
339.947
337.918
335.692
333.261
330.616
327.743
324.623
321.226
317.508
313.398
308.767
303.368
303.169
308.176
312.426
316.175
319.56
322.658
325.522
328.186
330.675
333.009
335.2
337.258
339.191
341.004
342.699
344.279
345.744
347.094
348.326
349.439
350.429
351.293
352.027
352.627
353.087
353.404
353.571
353.585
353.439
353.129
352.651
351.999
351.171
350.16
348.965
347.581
346.004
344.231
342.258
340.082
337.695
335.092
332.263
329.196
325.871
322.261
318.322
313.983
309.121
303.486
303.256
308.435
312.856
316.774
320.324
323.584
326.605
329.421
332.058
334.533
336.86
339.049
341.106
343.036
344.842
346.527
348.089
349.529
350.844
352.032
353.09
354.013
354.797
355.438
355.93
356.268
356.448
356.463
356.308
355.978
355.468
354.774
353.89
352.813
351.539
350.064
348.384
346.497
344.397
342.082
339.546
336.782
333.783
330.535
327.021
323.213
319.07
314.522
309.445
303.594
303.335
308.671
313.247
317.319
321.02
324.428
327.594
330.55
333.323
335.929
338.382
340.691
342.863
344.903
346.813
348.594
350.248
351.772
353.164
354.423
355.543
356.521
357.352
358.032
358.554
358.913
359.104
359.12
358.957
358.608
358.069
357.335
356.4
355.261
353.913
352.354
350.578
348.584
346.367
343.923
341.249
338.337
335.179
331.765
328.076
324.086
319.756
315.015
309.743
303.694
303.406
308.884
313.602
317.814
321.653
325.195
328.492
331.577
334.474
337.2
339.769
342.189
344.467
346.607
348.613
350.485
352.222
353.824
355.289
356.612
357.791
358.82
359.695
360.41
360.96
361.339
361.54
361.558
361.387
361.021
360.455
359.683
358.701
357.505
356.09
354.452
352.589
350.496
348.17
345.608
342.806
339.757
336.455
332.888
329.039
324.883
320.381
315.465
310.014
303.785
303.47
309.077
313.922
318.26
322.223
325.887
329.304
332.505
335.514
338.35
341.024
343.545
345.92
348.153
350.246
352.2
354.015
355.689
357.219
358.602
359.834
360.911
361.826
362.574
363.149
363.546
363.757
363.776
363.598
363.217
362.626
361.82
360.795
359.546
358.069
356.36
354.416
352.233
349.808
347.139
344.22
341.047
337.612
333.906
329.912
325.606
320.948
315.873
310.26
303.867
303.528
309.249
314.208
318.658
322.732
326.507
330.03
333.335
336.447
339.381
342.149
344.762
347.225
349.541
351.713
353.742
355.627
357.365
358.956
360.393
361.674
362.793
363.745
364.523
365.122
365.535
365.755
365.776
365.591
365.195
364.582
363.746
362.682
361.385
359.852
358.078
356.061
353.797
351.282
348.515
345.491
342.206
338.653
334.821
330.696
326.254
321.457
316.239
310.48
303.94
303.578
309.401
314.46
319.011
323.183
327.054
330.672
334.071
337.272
340.294
343.147
345.841
348.382
350.773
353.016
355.111
357.059
358.856
360.499
361.986
363.31
364.468
365.452
366.258
366.877
367.304
367.533
367.555
367.365
366.957
366.323
365.46
364.361
363.022
361.438
359.607
357.524
355.187
352.593
349.739
346.621
343.236
339.577
335.634
331.393
326.83
321.909
316.563
310.676
304.006
303.622
309.533
314.68
319.318
323.576
327.532
331.233
334.712
337.992
341.091
344.018
346.784
349.393
351.849
354.154
356.309
358.311
360.159
361.85
363.38
364.743
365.934
366.948
367.777
368.415
368.855
369.09
369.114
368.919
368.5
367.849
366.961
365.832
364.455
362.828
360.946
358.805
356.405
353.74
350.81
347.61
344.137
340.385
336.344
332.002
327.334
322.304
316.847
310.847
304.063
303.66
309.646
314.868
319.58
323.912
327.94
331.712
335.26
338.608
341.772
344.764
347.591
350.259
352.771
355.13
357.335
359.385
361.277
363.009
364.575
365.972
367.192
368.231
369.08
369.734
370.186
370.427
370.452
370.253
369.824
369.158
368.25
367.094
365.685
364.02
362.094
359.905
357.449
354.724
351.728
348.458
344.91
341.078
336.954
332.523
327.765
322.642
317.09
310.993
304.112
303.691
309.74
315.024
319.798
324.191
328.279
332.11
335.716
339.121
342.34
345.384
348.262
350.979
353.539
355.942
358.19
360.279
362.209
363.975
365.572
366.996
368.241
369.301
370.167
370.835
371.296
371.543
371.569
371.366
370.929
370.251
369.325
368.147
366.711
365.014
363.052
360.821
358.32
355.545
352.494
349.165
345.554
341.655
337.461
332.958
328.124
322.924
317.293
311.115
304.152
303.717
309.815
315.149
319.972
324.414
328.55
332.428
336.081
339.53
342.793
345.88
348.799
351.556
354.153
356.592
358.874
360.995
362.954
364.747
366.37
367.816
369.081
370.157
371.038
371.716
372.185
372.436
372.463
372.258
371.814
371.125
370.186
368.99
367.533
365.81
363.819
361.555
359.017
356.201
353.107
349.731
346.069
342.117
337.867
333.306
328.412
323.149
317.455
311.213
304.185
303.735
309.871
315.243
320.102
324.581
328.753
332.666
336.354
339.837
343.133
346.252
349.202
351.988
354.614
357.08
359.387
361.532
363.514
365.327
366.969
368.432
369.711
370.8
371.691
372.378
372.852
373.106
373.134
372.927
372.478
371.782
370.832
369.623
368.15
366.408
364.395
362.106
359.54
356.694
353.567
350.155
346.456
342.464
338.172
333.567
328.628
323.318
317.577
311.286
304.21
303.748
309.908
315.305
320.189
324.692
328.888
332.825
336.536
340.042
343.359
346.499
349.47
352.276
354.92
357.405
359.729
361.89
363.886
365.714
367.368
368.842
370.132
371.229
372.127
372.819
373.297
373.554
373.581
373.373
372.921
372.22
371.263
370.045
368.561
366.807
364.779
362.473
359.889
357.023
353.873
350.438
346.714
342.695
338.375
333.741
328.771
323.431
317.658
311.335
304.226
303.754
309.927
315.336
320.233
324.747
328.955
332.904
336.627
340.144
343.472
346.623
349.604
352.42
355.074
357.567
359.9
362.069
364.073
365.907
367.567
369.048
370.342
371.443
372.345
373.04
373.52
373.777
373.805
373.596
373.143
372.439
371.479
370.256
368.767
367.006
364.971
362.657
360.063
357.187
354.027
350.58
346.842
342.811
338.477
333.828
328.843
323.487
317.698
311.36
304.234
303.754
309.927
315.336
320.233
324.747
328.955
332.904
336.627
340.144
343.472
346.623
349.604
352.42
355.074
357.567
359.9
362.069
364.073
365.907
367.567
369.048
370.342
371.443
372.345
373.04
373.52
373.777
373.805
373.596
373.143
372.439
371.479
370.256
368.767
367.006
364.971
362.657
360.063
357.187
354.027
350.58
346.842
342.811
338.477
333.828
328.843
323.487
317.698
311.36
304.234
303.748
309.908
315.305
320.189
324.692
328.888
332.825
336.536
340.042
343.359
346.499
349.47
352.276
354.921
357.405
359.729
361.89
363.887
365.714
367.368
368.842
370.132
371.229
372.127
372.819
373.297
373.554
373.581
373.373
372.921
372.22
371.263
370.045
368.561
366.807
364.779
362.473
359.889
357.023
353.873
350.438
346.714
342.695
338.375
333.741
328.771
323.431
317.658
311.335
304.226
303.735
309.871
315.243
320.102
324.581
328.753
332.666
336.354
339.837
343.133
346.252
349.202
351.988
354.614
357.08
359.387
361.532
363.514
365.327
366.969
368.432
369.711
370.8
371.692
372.378
372.852
373.107
373.134
372.927
372.478
371.782
370.832
369.623
368.15
366.408
364.395
362.106
359.54
356.694
353.567
350.155
346.456
342.464
338.172
333.567
328.628
323.318
317.577
311.286
304.21
303.717
309.815
315.149
319.972
324.414
328.55
332.428
336.081
339.531
342.793
345.88
348.799
351.556
354.153
356.593
358.874
360.995
362.954
364.748
366.37
367.817
369.081
370.157
371.038
371.717
372.185
372.436
372.463
372.258
371.814
371.125
370.186
368.99
367.533
365.811
363.819
361.555
359.017
356.201
353.107
349.731
346.069
342.117
337.867
333.306
328.412
323.149
317.455
311.213
304.185
303.691
309.74
315.024
319.798
324.191
328.279
332.11
335.717
339.121
342.34
345.384
348.262
350.98
353.539
355.943
358.19
360.28
362.209
363.975
365.572
366.997
368.241
369.301
370.168
370.835
371.296
371.543
371.569
371.366
370.929
370.251
369.325
368.147
366.711
365.014
363.052
360.821
358.32
355.545
352.494
349.165
345.554
341.655
337.461
332.958
328.124
322.924
317.293
311.115
304.152
303.66
309.646
314.868
319.58
323.912
327.94
331.712
335.26
338.609
341.773
344.764
347.591
350.259
352.771
355.13
357.335
359.385
361.277
363.009
364.576
365.972
367.192
368.231
369.08
369.735
370.186
370.428
370.452
370.254
369.824
369.158
368.25
367.094
365.685
364.02
362.094
359.905
357.449
354.724
351.728
348.458
344.91
341.078
336.953
332.523
327.765
322.642
317.09
310.993
304.112
303.622
309.533
314.68
319.318
323.576
327.532
331.233
334.712
337.993
341.091
344.018
346.784
349.393
351.849
354.155
356.309
358.311
360.16
361.851
363.38
364.743
365.935
366.948
367.777
368.415
368.855
369.091
369.114
368.92
368.5
367.849
366.961
365.832
364.455
362.828
360.946
358.805
356.405
353.74
350.81
347.61
344.137
340.385
336.344
332.001
327.334
322.303
316.847
310.847
304.063
303.578
309.401
314.46
319.011
323.183
327.054
330.673
334.071
337.272
340.294
343.147
345.841
348.382
350.773
353.016
355.112
357.059
358.856
360.5
361.986
363.311
364.468
365.453
366.258
366.878
367.305
367.533
367.555
367.365
366.957
366.324
365.46
364.361
363.022
361.438
359.607
357.524
355.187
352.593
349.739
346.621
343.236
339.577
335.634
331.392
326.83
321.909
316.563
310.676
304.006
303.528
309.249
314.208
318.658
322.733
326.507
330.03
333.335
336.447
339.381
342.15
344.762
347.225
349.541
351.713
353.742
355.627
357.366
358.956
360.394
361.675
362.794
363.745
364.524
365.122
365.535
365.755
365.776
365.592
365.196
364.582
363.746
362.682
361.386
359.852
358.078
356.061
353.797
351.282
348.515
345.491
342.206
338.652
334.821
330.696
326.254
321.457
316.239
310.48
303.94
303.47
309.077
313.922
318.26
322.223
325.888
329.304
332.505
335.515
338.35
341.024
343.545
345.92
348.153
350.246
352.2
354.015
355.689
357.219
358.603
359.835
360.911
361.826
362.575
363.15
363.546
363.757
363.777
363.599
363.217
362.626
361.821
360.796
359.547
358.069
356.36
354.416
352.233
349.808
347.138
344.22
341.047
337.612
333.906
329.912
325.605
320.948
315.873
310.26
303.867
303.406
308.884
313.602
317.814
321.653
325.196
328.493
331.577
334.474
337.201
339.769
342.189
344.467
346.608
348.613
350.485
352.223
353.825
355.289
356.613
357.791
358.821
359.696
360.411
360.961
361.339
361.54
361.558
361.387
361.021
360.455
359.684
358.702
357.505
356.09
354.452
352.589
350.496
348.17
345.608
342.806
339.757
336.455
332.887
329.039
324.883
320.381
315.465
310.014
303.784
303.335
308.671
313.247
317.319
321.021
324.429
327.594
330.551
333.323
335.929
338.382
340.691
342.863
344.903
346.813
348.595
350.248
351.772
353.165
354.423
355.543
356.522
357.353
358.032
358.554
358.913
359.104
359.12
358.957
358.608
358.069
357.335
356.4
355.261
353.914
352.354
350.579
348.584
346.367
343.923
341.249
338.336
335.179
331.764
328.075
324.086
319.755
315.015
309.743
303.694
303.256
308.435
312.856
316.774
320.324
323.584
326.605
329.421
332.058
334.534
336.861
339.049
341.106
343.036
344.843
346.527
348.09
349.53
350.845
352.033
353.09
354.013
354.797
355.438
355.93
356.269
356.448
356.463
356.308
355.978
355.468
354.774
353.89
352.813
351.539
350.064
348.384
346.497
344.397
342.082
339.546
336.782
333.783
330.535
327.02
323.213
319.07
314.522
309.445
303.594
303.169
308.176
312.426
316.176
319.56
322.658
325.522
328.186
330.676
333.009
335.2
337.259
339.192
341.004
342.7
344.28
345.745
347.094
348.326
349.439
350.429
351.294
352.028
352.627
353.088
353.404
353.572
353.585
353.439
353.13
352.651
352
351.171
350.161
348.965
347.581
346.004
344.231
342.258
340.081
337.695
335.092
332.263
329.196
325.871
322.26
318.321
313.983
309.12
303.486
303.075
307.892
311.955
315.52
318.724
321.646
324.34
326.839
329.17
331.351
333.396
335.315
337.115
338.802
340.379
341.848
343.209
344.463
345.607
346.64
347.559
348.361
349.042
349.598
350.025
350.318
350.473
350.484
350.348
350.06
349.616
349.01
348.24
347.3
346.189
344.901
343.434
341.784
339.947
337.918
335.692
333.261
330.616
327.743
324.623
321.226
317.508
313.397
308.767
303.368
302.971
307.581
311.439
314.803
317.81
320.542
323.051
325.373
327.533
329.551
331.44
333.211
334.87
336.424
337.875
339.226
340.478
341.63
342.681
343.63
344.474
345.21
345.835
346.346
346.737
347.006
347.147
347.158
347.032
346.767
346.358
345.801
345.092
344.228
343.206
342.021
340.67
339.15
337.457
335.586
333.531
331.284
328.836
326.171
323.271
320.104
316.625
312.761
308.383
303.239
302.856
307.239
310.873
314.017
316.812
319.337
321.647
323.779
325.757
327.601
329.324
330.937
332.448
333.861
335.18
336.407
337.544
338.589
339.543
340.404
341.169
341.836
342.403
342.865
343.22
343.463
343.591
343.6
343.486
343.245
342.873
342.367
341.724
340.939
340.01
338.933
337.705
336.323
334.782
333.077
331.203
329.152
326.914
324.472
321.807
318.888
315.667
312.07
307.965
303.1
302.73
306.863
310.249
313.154
315.716
318.019
320.116
322.043
323.827
325.487
327.035
328.483
329.837
331.102
332.283
333.38
334.396
335.331
336.183
336.951
337.635
338.231
338.736
339.149
339.465
339.682
339.796
339.804
339.701
339.486
339.153
338.701
338.125
337.423
336.592
335.629
334.53
333.291
331.91
330.381
328.699
326.855
324.838
322.634
320.221
317.568
314.625
311.317
307.51
302.947
302.59
306.444
309.558
312.2
314.51
316.571
318.439
320.149
321.728
323.192
324.557
325.831
327.021
328.132
329.168
330.131
331.021
331.84
332.587
333.26
333.859
334.381
334.823
335.184
335.461
335.651
335.75
335.757
335.667
335.477
335.186
334.789
334.284
333.669
332.94
332.094
331.129
330.042
328.828
327.483
326.002
324.375
322.594
320.642
318.497
316.129
313.486
310.492
307.01
302.78
302.432
305.973
308.784
311.135
313.169
314.971
316.593
318.072
319.433
320.694
321.865
322.958
323.977
324.928
325.815
326.638
327.399
328.099
328.737
329.312
329.823
330.268
330.646
330.954
331.19
331.352
331.437
331.442
331.365
331.203
330.954
330.614
330.183
329.657
329.033
328.31
327.484
326.553
325.513
324.36
323.089
321.691
320.157
318.471
316.613
314.549
312.232
309.58
306.456
302.594
302.25
305.433
307.901
309.929
311.661
313.182
314.542
315.777
316.91
317.956
318.927
319.831
320.674
321.46
322.192
322.872
323.5
324.077
324.603
325.077
325.498
325.865
326.177
326.431
326.625
326.758
326.828
326.832
326.768
326.635
326.429
326.149
325.793
325.359
324.844
324.247
323.565
322.795
321.936
320.982
319.928
318.769
317.494
316.089
314.534
312.798
310.832
308.557
305.831
302.383
302.033
304.795
306.869
308.535
309.936
311.153
312.235
313.213
314.106
314.93
315.693
316.403
317.065
317.681
318.254
318.787
319.279
319.731
320.142
320.513
320.843
321.13
321.374
321.572
321.724
321.829
321.883
321.886
321.836
321.731
321.57
321.351
321.072
320.732
320.329
319.861
319.326
318.723
318.048
317.3
316.472
315.56
314.554
313.444
312.21
310.824
309.241
307.381
305.106
302.137
301.76
304.005
305.616
306.872
307.909
308.801
309.589
310.297
310.943
311.537
312.087
312.597
313.073
313.516
313.928
314.31
314.663
314.988
315.283
315.549
315.786
315.992
316.167
316.309
316.418
316.493
316.532
316.534
316.498
316.423
316.307
316.15
315.95
315.705
315.416
315.08
314.695
314.262
313.777
313.238
312.642
311.985
311.259
310.455
309.559
308.547
307.378
305.983
304.228
301.835
301.379
302.953
304.006
304.798
305.44
305.985
306.464
306.894
307.284
307.643
307.975
308.283
308.569
308.836
309.084
309.315
309.527
309.722
309.9
310.06
310.203
310.327
310.432
310.518
310.583
310.628
310.652
310.653
310.631
310.586
310.516
310.422
310.301
310.154
309.979
309.777
309.546
309.285
308.992
308.667
308.308
307.911
307.472
306.986
306.441
305.823
305.103
304.227
303.087
301.424
300.736
301.379
301.761
302.034
302.252
302.436
302.597
302.741
302.872
302.992
303.103
303.206
303.301
303.39
303.473
303.55
303.621
303.686
303.746
303.799
303.847
303.888
303.923
303.952
303.974
303.989
303.997
303.997
303.99
303.975
303.951
303.92
303.88
303.83
303.772
303.705
303.627
303.54
303.442
303.334
303.214
303.081
302.934
302.771
302.588
302.38
302.136
301.834
301.424
300.751
300.297
300.731
301.052
301.304
301.513
301.692
301.851
301.993
302.123
302.243
302.354
302.457
302.553
302.642
302.725
302.802
302.873
302.938
302.998
303.051
303.099
303.141
303.176
303.204
303.226
303.241
303.249
303.25
303.242
303.227
303.204
303.172
303.132
303.083
303.024
302.957
302.879
302.792
302.694
302.586
302.466
302.333
302.187
302.025
301.845
301.641
301.406
301.126
300.776
300.312
300.731
301.905
302.818
303.553
304.169
304.702
305.175
305.6
305.989
306.347
306.678
306.986
307.273
307.54
307.788
308.019
308.232
308.428
308.606
308.767
308.909
309.034
309.139
309.225
309.291
309.336
309.359
309.361
309.339
309.294
309.224
309.129
309.008
308.861
308.686
308.483
308.251
307.99
307.698
307.373
307.014
306.617
306.181
305.697
305.159
304.554
303.859
303.04
302.039
300.776
301.052
302.817
304.244
305.421
306.421
307.294
308.071
308.773
309.416
310.008
310.557
311.068
311.544
311.987
312.4
312.783
313.137
313.462
313.758
314.025
314.262
314.469
314.644
314.787
314.896
314.971
315.01
315.012
314.976
314.901
314.785
314.627
314.427
314.182
313.892
313.555
313.17
312.736
312.251
311.712
311.117
310.461
309.738
308.94
308.054
307.06
305.929
304.612
303.041
301.127
301.303
303.55
305.418
306.991
308.346
309.539
310.608
311.578
312.468
313.29
314.052
314.762
315.424
316.041
316.615
317.149
317.642
318.094
318.507
318.879
319.209
319.497
319.742
319.941
320.093
320.198
320.252
320.255
320.205
320.1
319.939
319.719
319.44
319.099
318.695
318.226
317.691
317.087
316.412
315.663
314.836
313.925
312.924
311.821
310.6
309.238
307.699
305.932
303.862
301.408
301.51
304.163
306.413
308.34
310.021
311.514
312.859
314.085
315.213
316.257
317.227
318.131
318.975
319.762
320.495
321.176
321.805
322.384
322.911
323.386
323.808
324.176
324.488
324.743
324.938
325.072
325.142
325.146
325.082
324.948
324.742
324.461
324.104
323.669
323.153
322.555
321.872
321.102
320.242
319.288
318.235
317.077
315.806
314.41
312.87
311.161
309.246
307.07
304.562
301.644
301.688
304.69
307.276
309.521
311.501
313.273
314.878
316.348
317.704
318.962
320.132
321.225
322.245
323.198
324.085
324.91
325.673
326.374
327.013
327.59
328.102
328.549
328.927
329.236
329.473
329.635
329.72
329.726
329.648
329.486
329.236
328.896
328.464
327.937
327.312
326.587
325.761
324.828
323.788
322.635
321.364
319.968
318.438
316.762
314.919
312.885
310.622
308.075
305.174
301.85
301.844
305.154
308.04
310.573
312.826
314.857
316.707
318.407
319.98
321.442
322.805
324.079
325.27
326.383
327.421
328.386
329.278
330.099
330.847
331.522
332.122
332.645
333.089
333.451
333.729
333.919
334.019
334.025
333.935
333.745
333.453
333.055
332.55
331.933
331.202
330.355
329.389
328.3
327.085
325.74
324.259
322.635
320.858
318.915
316.788
314.45
311.863
308.977
305.722
302.034
301.983
305.569
308.725
311.52
314.024
316.295
318.373
320.29
322.069
323.726
325.273
326.721
328.077
329.344
330.526
331.626
332.644
333.58
334.435
335.205
335.89
336.487
336.994
337.408
337.725
337.943
338.057
338.065
337.962
337.746
337.413
336.96
336.383
335.68
334.847
333.882
332.781
331.541
330.158
328.629
326.947
325.105
323.093
320.899
318.503
315.881
312.995
309.796
306.218
302.2
302.108
305.944
309.345
312.379
315.115
317.608
319.899
322.02
323.992
325.834
327.557
329.171
330.683
332.098
333.419
334.649
335.788
336.836
337.792
338.654
339.421
340.091
340.659
341.122
341.478
341.722
341.85
341.859
341.745
341.503
341.131
340.624
339.979
339.193
338.262
337.183
335.953
334.569
333.026
331.32
329.447
327.398
325.164
322.732
320.085
317.197
314.034
310.546
306.672
302.352
302.222
306.285
309.91
313.162
316.111
318.81
321.3
323.611
325.766
327.782
329.671
331.442
333.103
334.659
336.113
337.467
338.721
339.876
340.93
341.881
342.727
343.465
344.092
344.603
344.996
345.265
345.407
345.418
345.292
345.026
344.616
344.058
343.348
342.482
341.458
340.27
338.918
337.395
335.7
333.828
331.772
329.528
327.084
324.429
321.546
318.411
314.99
311.236
307.089
302.491
302.326
306.595
310.425
313.879
317.023
319.913
322.587
325.076
327.402
329.581
331.626
333.546
335.349
337.038
338.618
340.09
341.454
342.71
343.857
344.893
345.814
346.618
347.301
347.858
348.286
348.58
348.735
348.747
348.611
348.322
347.877
347.27
346.498
345.556
344.443
343.153
341.683
340.031
338.191
336.161
333.934
331.505
328.864
326.001
322.898
319.532
315.872
311.872
307.473
302.62
302.421
306.879
310.896
314.534
317.859
320.925
323.77
326.424
328.908
331.24
333.431
335.491
337.427
339.242
340.941
342.524
343.992
345.345
346.58
347.695
348.688
349.554
350.291
350.892
351.353
351.671
351.839
351.852
351.706
351.396
350.916
350.263
349.433
348.42
347.222
345.835
344.256
342.48
340.505
338.326
335.939
333.337
330.512
327.454
324.146
320.567
316.686
312.458
307.826
302.738
302.507
307.138
311.326
315.133
318.624
321.851
324.854
327.66
330.292
332.766
335.094
337.284
339.343
341.277
343.087
344.775
346.341
347.784
349.102
350.293
351.353
352.278
353.065
353.707
354.201
354.54
354.72
354.735
354.579
354.249
353.738
353.042
352.156
351.077
349.8
348.322
346.64
344.749
342.647
340.329
337.792
335.03
332.034
328.795
325.297
321.521
317.435
312.997
308.151
302.847
302.586
307.374
311.718
315.679
319.321
322.697
325.844
328.791
331.559
334.164
336.617
338.928
341.103
343.146
345.06
346.846
348.503
350.03
351.426
352.687
353.811
354.791
355.625
356.306
356.829
357.189
357.381
357.397
357.233
356.884
356.344
355.607
354.671
353.529
352.179
350.616
348.838
346.84
344.62
342.174
339.498
336.586
333.432
330.026
326.354
322.395
318.122
313.491
308.449
302.946
302.657
307.588
312.073
316.174
319.954
323.465
326.744
329.819
332.712
335.437
338.007
340.429
342.71
344.854
346.864
348.739
350.481
352.087
353.555
354.881
356.063
357.095
357.972
358.689
359.24
359.62
359.822
359.84
359.668
359.302
358.734
357.961
356.977
355.778
354.36
352.719
350.852
348.755
346.426
343.862
341.058
338.009
334.71
331.151
327.319
323.194
318.748
313.942
308.721
303.037
302.722
307.781
312.394
316.621
320.525
324.158
327.557
330.749
333.754
336.589
339.264
341.788
344.166
346.403
348.5
350.458
352.277
353.955
355.489
356.876
358.111
359.19
360.107
360.858
361.434
361.832
362.044
362.063
361.885
361.502
360.91
360.103
359.075
357.824
356.343
354.631
352.683
350.496
348.068
345.395
342.475
339.301
335.87
332.171
328.193
323.917
319.316
314.35
308.967
303.119
302.779
307.953
312.68
317.02
321.036
324.778
328.284
331.581
334.688
337.622
340.392
343.007
345.473
347.794
349.97
352.003
353.892
355.635
357.229
358.671
359.955
361.077
362.031
362.811
363.411
363.825
364.046
364.067
363.882
363.485
362.871
362.033
360.966
359.667
358.13
356.353
354.331
352.063
349.545
346.775
343.749
340.463
336.912
333.088
328.979
324.567
319.826
314.717
309.188
303.193
302.83
308.105
312.933
317.373
321.488
325.327
328.928
332.318
335.515
338.537
341.392
344.089
346.633
349.028
351.276
353.376
355.328
357.129
358.777
360.267
361.595
362.755
363.742
364.549
365.171
365.599
365.828
365.851
365.66
365.251
364.616
363.75
362.649
361.307
359.72
357.885
355.798
353.457
350.859
348.001
344.881
341.495
337.838
333.903
329.677
325.144
320.279
315.042
309.384
303.258
302.874
308.238
313.154
317.681
321.881
325.806
329.49
332.96
336.237
339.335
342.265
345.033
347.647
350.107
352.417
354.576
356.583
358.436
360.131
361.664
363.031
364.225
365.241
366.072
366.712
367.153
367.39
367.413
367.218
366.798
366.145
365.256
364.123
362.744
361.113
359.227
357.082
354.677
352.009
349.075
345.873
342.399
338.649
334.615
330.288
325.649
320.675
315.327
309.555
303.316
302.912
308.351
313.342
317.944
322.218
326.215
329.97
333.51
336.855
340.019
343.012
345.842
348.514
351.031
353.395
355.605
357.659
359.556
361.292
362.863
364.262
365.486
366.527
367.379
368.035
368.487
368.73
368.755
368.555
368.125
367.458
366.547
365.389
363.977
362.308
360.378
358.184
355.724
352.995
349.995
346.722
343.173
339.343
335.226
330.811
326.082
321.014
315.57
309.702
303.365
302.943
308.445
313.499
318.162
322.498
326.555
330.369
333.967
337.369
340.587
343.634
346.515
349.237
351.801
354.21
356.462
358.556
360.49
362.26
363.862
365.29
366.538
367.6
368.469
369.138
369.6
369.848
369.874
369.671
369.233
368.553
367.625
366.444
365.005
363.305
361.338
359.103
356.597
353.818
350.763
347.431
343.819
339.922
335.735
331.247
326.442
321.296
315.774
309.825
303.406
302.968
308.52
313.624
318.337
322.721
326.826
330.688
334.332
337.779
341.042
344.131
347.054
349.815
352.417
354.861
357.147
359.274
361.237
363.035
364.662
366.112
367.38
368.459
369.342
370.022
370.492
370.743
370.77
370.565
370.12
369.43
368.488
367.29
365.829
364.103
362.107
359.839
357.296
354.476
351.377
347.998
344.335
340.385
336.142
331.595
326.73
321.522
315.936
309.922
303.438
302.987
308.577
313.718
318.467
322.888
327.03
330.927
334.606
338.087
341.383
344.504
347.457
350.248
352.878
355.35
357.662
359.812
361.798
363.616
365.262
366.729
368.011
369.103
369.997
370.685
371.16
371.416
371.443
371.235
370.786
370.088
369.136
367.924
366.447
364.702
362.684
360.391
357.82
354.97
351.838
348.424
344.723
340.733
336.447
331.857
326.946
321.692
316.058
309.996
303.463
303
308.614
313.78
318.554
323
327.165
331.086
334.788
338.292
341.609
344.752
347.726
350.537
353.186
355.676
358.004
360.171
362.172
364.004
365.662
367.14
368.433
369.533
370.434
371.127
371.607
371.864
371.892
371.683
371.23
370.527
369.568
368.347
366.86
365.102
363.069
360.759
358.17
355.3
352.146
348.707
344.981
340.965
336.651
332.031
327.09
321.805
316.139
310.045
303.479
303.006