/*--------------------------------*- C++ -*----------------------------------*\
| =========                 |                                                 |
| \\      /  F ield         | OpenFOAM: The Open Source CFD Toolbox           |
|  \\    /   O peration     | Version:  5.x                                   |
|   \\  /    A nd           | Web:      www.OpenFOAM.org                      |
|    \\/     M anipulation  |                                                 |
\*---------------------------------------------------------------------------*/
FoamFile
{
    version     2.0;
    format      ascii;
    class       volScalarField;
    location    "0.2";
    object      gradTz;
}
// * * * * * * * * * * * * * * * * * * * * * * * * * * * * * * * * * * * * * //

dimensions      [0 -1 0 1 0 0 0];

internalField   nonuniform List<scalar> 
25000
(
-6334.83
-6853.19
-7004.33
-7058.7
-7082.22
-7094.04
-7100.76
-7105.07
-7108.17
-7110.7
-7113.01
-7115.32
-7117.75
-7120.41
-7123.36
-7126.65
-7130.33
-7134.41
-7138.92
-7143.86
-7149.23
-7155.03
-7161.24
-7167.84
-7174.77
-7182
-7189.47
-7197.11
-7204.85
-7212.59
-7220.23
-7227.67
-7234.77
-7241.4
-7247.38
-7252.54
-7256.66
-7259.5
-7260.76
-7260.1
-7257.13
-7251.35
-7242.16
-7228.71
-7209.65
-7182.31
-7140.25
-7064.7
-6890.3
-6347.35
-6853.19
-7847.74
-8196.11
-8336.45
-8401.12
-8434.75
-8454.26
-8466.9
-8476.11
-8483.68
-8490.63
-8497.58
-8504.94
-8512.99
-8521.94
-8531.93
-8543.09
-8555.48
-8569.17
-8584.17
-8600.51
-8618.14
-8637.01
-8657.05
-8678.13
-8700.12
-8722.85
-8746.11
-8769.66
-8793.23
-8816.52
-8839.18
-8860.84
-8881.05
-8899.32
-8915.09
-8927.71
-8936.43
-8940.37
-8938.49
-8929.58
-8912.18
-8884.47
-8844.01
-8786.95
-8706.07
-8584.93
-8380.05
-7960.81
-6891.34
-7004.31
-8196.06
-8651.56
-8848.58
-8944.24
-8995.81
-9026.54
-9046.85
-9061.9
-9074.45
-9086.09
-9097.82
-9110.3
-9123.98
-9139.22
-9156.25
-9175.26
-9196.41
-9219.77
-9245.4
-9273.3
-9303.43
-9335.7
-9369.96
-9406.04
-9443.69
-9482.62
-9522.47
-9562.86
-9603.31
-9643.31
-9682.26
-9719.51
-9754.32
-9785.83
-9813.09
-9834.97
-9850.2
-9857.27
-9854.41
-9839.57
-9810.32
-9763.67
-9695.73
-9600.65
-9468
-9275.43
-8967.57
-8390.33
-7069.86
-7058.63
-8336.28
-8848.41
-9080.57
-9197.96
-9263.41
-9303.5
-9330.66
-9351.22
-9368.68
-9385.12
-9401.85
-9419.76
-9439.47
-9461.47
-9486.09
-9513.61
-9544.23
-9578.08
-9615.24
-9655.71
-9699.44
-9746.3
-9796.1
-9848.56
-9903.34
-9960.03
-10018.1
-10077
-10136.1
-10194.5
-10251.5
-10306.1
-10357.2
-10403.5
-10443.7
-10476.1
-10498.9
-10509.8
-10506.4
-10485.7
-10444.1
-10377.7
-10281.3
-10147.4
-9963.63
-9704.67
-9310.53
-8620.4
-7154.51
-7082.07
-8400.72
-8943.7
-9197.52
-9329.84
-9405.75
-9453.51
-9486.72
-9512.49
-9534.85
-9556.27
-9578.32
-9602.09
-9628.38
-9657.78
-9690.76
-9727.66
-9768.75
-9814.21
-9864.14
-9918.57
-9977.41
-10040.5
-10107.6
-10178.4
-10252.3
-10328.9
-10407.5
-10487.2
-10567.2
-10646.6
-10724
-10798.3
-10868
-10931.3
-10986.4
-11031.1
-11062.9
-11078.8
-11075.3
-11048.7
-10994.3
-10906.9
-10780.1
-10605.5
-10369.3
-10045
-9571.33
-8786.64
-7212.31
-7093.75
-8433.95
-8994.65
-9262.16
-9404.83
-9488.65
-9542.75
-9581.37
-9612.14
-9639.47
-9666.13
-9693.91
-9724.1
-9757.65
-9795.27
-9837.55
-9884.91
-9937.71
-9996.17
-10060.4
-10130.5
-10206.4
-10287.8
-10374.4
-10465.8
-10561.5
-10660.7
-10762.5
-10866
-10970
-11073.3
-11174.2
-11271.2
-11362.4
-11445.5
-11518.1
-11577.4
-11620
-11642.1
-11639.3
-11606.7
-11538.6
-11428.5
-11268.9
-11050.3
-10758.2
-10365.9
-9812.23
-8936.74
-7263.45
-7100.28
-8452.86
-9024.4
-9300.94
-9451.02
-9541.03
-9600.5
-9644.09
-9679.77
-9712.23
-9744.47
-9778.49
-9815.76
-9857.37
-9904.17
-9956.85
-10016
-10081.9
-10155
-10235.4
-10323.2
-10418.3
-10520.4
-10629.2
-10744.1
-10864.5
-10989.4
-11117.8
-11248.5
-11380.1
-11510.8
-11638.9
-11762.2
-11878.4
-11984.5
-12077.7
-12154.1
-12209.7
-12239.7
-12238.5
-12200
-12117
-11982
-11786.3
-11519.2
-11166
-10700
-10061
-9090.41
-7315.47
-7104.28
-8464.62
-9043.28
-9326.14
-9481.81
-9576.87
-9641.1
-9689.42
-9730.03
-9767.86
-9806.1
-9846.96
-9892.05
-9942.62
-9999.67
-10064
-10136.3
-10217
-10306.6
-10405.2
-10512.9
-10629.7
-10755.2
-10889.1
-11030.7
-11179.1
-11333.4
-11492.1
-11653.9
-11817
-11979.4
-12138.7
-12292.4
-12437.4
-12570.4
-12687.5
-12784.2
-12855.4
-12895
-12896.4
-12851.9
-12753
-12590.5
-12354.5
-12033.6
-11612.5
-11064.7
-10331.7
-9257.23
-7371.83
-7106.98
-8472.61
-9056.3
-9343.91
-9504.07
-9603.49
-9672.13
-9725.09
-9770.77
-9814.29
-9859.03
-9907.37
-9961.09
-10021.6
-10090
-10167.3
-10254.3
-10351.6
-10459.5
-10578.5
-10708.6
-10849.8
-11001.7
-11163.8
-11335.5
-11515.6
-11703.1
-11896.2
-12093.4
-12292.3
-12490.7
-12685.7
-12874.2
-13052.5
-13216.5
-13361.4
-13481.7
-13571.2
-13622.6
-13627.6
-13577.1
-13460.8
-13268.1
-12987.4
-12606.4
-12109.3
-11470.4
-10632.6
-9442.42
-7434.37
-7108.96
-8478.52
-9066.1
-9357.53
-9521.54
-9624.95
-9697.84
-9755.48
-9806.45
-9856.04
-9907.81
-9964.3
-10027.5
-10098.9
-10179.9
-10271.6
-10374.8
-10490.4
-10618.8
-10760.4
-10915.4
-11083.7
-11265
-11458.7
-11664
-11879.7
-12104.3
-12336.1
-12573
-12812.4
-13051.5
-13286.9
-13514.9
-13731
-13930.3
-14107
-14254.5
-14365.3
-14430.6
-14440.6
-14384.1
-14249.1
-14023.1
-13692.9
-13245
-12663.3
-11922.7
-10968
-9648.86
-7504.07
-7110.54
-8483.29
-9074.09
-9368.85
-9536.37
-9643.57
-9720.69
-9783.14
-9839.66
-9895.72
-9955.05
-10020.4
-10093.9
-10177.2
-10272
-10379.4
-10500.4
-10636.1
-10786.9
-10953.4
-11135.8
-11334
-11547.7
-11776.3
-12018.7
-12273.7
-12539.6
-12814.3
-13095.4
-13379.9
-13664.4
-13944.9
-14217.1
-14475.6
-14714.7
-14927.3
-15105.8
-15241
-15322.5
-15338.6
-15276.2
-15121.2
-14858.8
-14474.2
-13952.5
-13277.3
-12424.1
-11339.8
-9877.74
-7581.35
-7111.91
-8487.42
-9081.09
-9378.9
-9549.75
-9660.7
-9742.1
-9809.53
-9871.88
-9934.82
-10002.2
-10077.1
-10161.6
-10257.9
-10367.5
-10491.8
-10632.2
-10789.6
-10964.7
-11158.3
-11370.4
-11601.1
-11850.1
-12116.6
-12399.6
-12697.6
-13008.6
-13330.3
-13659.8
-13993.8
-14328.3
-14658.6
-14979.6
-15285.1
-15568.2
-15820.9
-16033.9
-16196.5
-16296.5
-16320.1
-16252
-16075.7
-15774.1
-15330.3
-14728.1
-13950.6
-12974.1
-11747.8
-10128.9
-7666.16
-7113.16
-8491.21
-9087.55
-9388.28
-9562.4
-9677.1
-9762.87
-9835.45
-9903.91
-9974.07
-10050
-10134.9
-10231.3
-10341.2
-10466.6
-10609.1
-10770.1
-10950.7
-11151.9
-11374.3
-11618.3
-11883.9
-12170.8
-12478.1
-12804.6
-13148.8
-13508.5
-13880.9
-14262.8
-14650.3
-15038.9
-15423.3
-15797.3
-16154
-16485.2
-16781.6
-17032.5
-17225.4
-17346.1
-17378.6
-17305
-17106.3
-16762.9
-16255.7
-15566.8
-14678.9
-13569.2
-12189.4
-10400.8
-7757.96
-7114.34
-8494.8
-9093.72
-9397.3
-9574.67
-9693.15
-9783.38
-9861.26
-9936.04
-10013.7
-10098.6
-10194
-10302.7
-10427
-10569
-10730.6
-10913.2
-11118.3
-11346.8
-11599.7
-11877.3
-12179.8
-12506.6
-12857
-13229.7
-13622.9
-14034.1
-14460.4
-14898
-15342.5
-15788.7
-16230.7
-16661.5
-17072.9
-17455.7
-17799.2
-18090.9
-18316.7
-18460.1
-18502.6
-18423.8
-18201.9
-17814.5
-17240.3
-16459.6
-15454.5
-14203.1
-12659.8
-10690.5
-7855.8
-7115.48
-8498.28
-9099.72
-9406.1
-9586.71
-9708.98
-9803.74
-9887.02
-9968.27
-10053.7
-10147.7
-10254
-10375.4
-10514.6
-10673.7
-10854.9
-11059.9
-11290.3
-11547.2
-11831.7
-12144.1
-12484.7
-12853.1
-13248.3
-13669
-14113.2
-14578.2
-15060.6
-15556.3
-16060.4
-16567
-17069.4
-17559.6
-18028.6
-18465.7
-18858.8
-19193.8
-19454.5
-19622.1
-19675.8
-19592.2
-19346.6
-18913.9
-18270
-17393.7
-16266.2
-14866.7
-13152.4
-10993.8
-7958.25
-7116.59
-8501.67
-9105.55
-9414.7
-9598.51
-9724.57
-9823.85
-9912.56
-10000.3
-10093.5
-10196.9
-10314.1
-10448.4
-10602.6
-10779.1
-10980.2
-11208
-11464
-11749.8
-12066.4
-12414.3
-12793.7
-13204.4
-13645.4
-14115.1
-14611.3
-15131.3
-15671.1
-16226.4
-16791.5
-17360.1
-17924.5
-18476
-19004.2
-19497.4
-19941.8
-20321.6
-20618.6
-20811.7
-20877.3
-20789.3
-20520
-20041.3
-19326.4
-18352.2
-17099.4
-15548
-13658.2
-11305.4
-8063.49
-7117.66
-8504.94
-9111.21
-9423.05
-9609.99
-9739.76
-9843.5
-9937.57
-10031.8
-10132.7
-10245.2
-10373.4
-10520.5
-10689.5
-10883.3
-11104.3
-11354.7
-11636.3
-11950.8
-12299.3
-12682.6
-13100.8
-13553.7
-14040.3
-14559
-15107.4
-15682.3
-16279.8
-16894.7
-17521.2
-18152
-18778.8
-19391.9
-19979.9
-20529.6
-21025.9
-21451.1
-21784.9
-22004.1
-22082.3
-21990.5
-21697.8
-21173.2
-20387.4
-19315.2
-17936.7
-16232.9
-14166.8
-11618.6
-8169.31
-7118.68
-8508.06
-9116.61
-9431.02
-9620.97
-9754.33
-9862.37
-9961.62
-10062.1
-10170.5
-10291.9
-10430.6
-10590.1
-10773.7
-10984.3
-11224.5
-11496.9
-11803.4
-12145.8
-12525.5
-12943.2
-13399.3
-13893.4
-14424.5
-14991
-15590.4
-16219.1
-16872.8
-17546.3
-18232.8
-18924.7
-19612.8
-20286.4
-20933.2
-21538.6
-22086
-22556.1
-22926.5
-23171.7
-23262.6
-23167.4
-22852.3
-22283.1
-21428
-20260
-18758.4
-16905.1
-14666
-11926.2
-8273.2
-7119.63
-8510.98
-9121.66
-9438.49
-9631.27
-9768
-9880.09
-9984.23
-10090.6
-10206
-10335.9
-10484.6
-10655.8
-10853.1
-11079.6
-11338.1
-11631.3
-11961.4
-12330.3
-12739.5
-13189.9
-13681.9
-14215.1
-14788.6
-15400.6
-16048.4
-16728.3
-17435.7
-18164.9
-18908.7
-19658.9
-20405.5
-21137.1
-21840.1
-22498.9
-23095.4
-23608.6
-24014.2
-24284.4
-24387.9
-24289.8
-23953.6
-23342.3
-22421.4
-21162.1
-19543.1
-17547.1
-15142.9
-12220
-8372.45
-7120.5
-8513.63
-9126.25
-9445.29
-9640.65
-9780.46
-9896.25
-10004.9
-10116.6
-10238.5
-10376.1
-10534
-10716
-10925.9
-11166.9
-11442.2
-11754.5
-12106.3
-12499.5
-12935.9
-13416.3
-13941.3
-14510.6
-15123.1
-15776.9
-16469.4
-17196.5
-17953.5
-18734.1
-19530.9
-20335
-21135.7
-21920.9
-22675.9
-23384.2
-24026.3
-24579.6
-25018
-25311.7
-25427
-25326.7
-24971.2
-24321.1
-23339.6
-21996.1
-20268.7
-18140.9
-15584
-12491.8
-8464.27
-7121.26
-8515.96
-9130.29
-9451.27
-9648.9
-9791.41
-9910.47
-10023
-10139.5
-10267.1
-10411.6
-10577.5
-10769
-10990
-11243.9
-11534
-11863.2
-12234.1
-12648.9
-13109.2
-13616.3
-14170.5
-14771.6
-15418.6
-16109.6
-16841.6
-17610.7
-18411.6
-19237.8
-20081.7
-20933.6
-21782.5
-22615.3
-23416.7
-24169.1
-24851.7
-25440.8
-25908.5
-26223.3
-26349.4
-26247.1
-25874.9
-25190.5
-24155.3
-22737.1
-20913.5
-18668.7
-15976
-12733.4
-8545.89
-7121.9
-8517.91
-9133.66
-9456.26
-9655.79
-9800.57
-9922.36
-10038.2
-10158.7
-10291.1
-10441.2
-10613.9
-10813.4
-11043.7
-11308.4
-11610.9
-11954.3
-12341.3
-12774.2
-13254.7
-13784
-14362.8
-14990.7
-15666.8
-16389
-17154.3
-17958.5
-18796.4
-19661.2
-20544.6
-21436.9
-22326.3
-23199.4
-24039.9
-24829.5
-25546.5
-26165.8
-26658.4
-26991.2
-27126.4
-27022.7
-26636.4
-25923.3
-24842.9
-23361.9
-21457.2
-19113.7
-16306.7
-12937.2
-8614.73
-7122.39
-8519.42
-9136.27
-9460.13
-9661.13
-9807.68
-9931.59
-10050
-10173.6
-10309.7
-10464.3
-10642.2
-10847.9
-11085.5
-11358.6
-11670.8
-12025.2
-12424.7
-12871.6
-13367.8
-13914.6
-14512.4
-15161.3
-15860
-16606.5
-17397.8
-18229.5
-19096.3
-19991.1
-20905.4
-21829.2
-22750.4
-23654.9
-24526.1
-25344.8
-26088.6
-26731.6
-27243.8
-27590.5
-27733.1
-27628.4
-27231.1
-26495.7
-25380.1
-23850.1
-21882
-19461.5
-16565.1
-13096.4
-8668.54
-7122.73
-8520.45
-9138.06
-9462.78
-9664.79
-9812.53
-9937.9
-10058.1
-10183.7
-10322.4
-10480
-10661.6
-10871.5
-11114
-11392.9
-11711.7
-12073.7
-12481.7
-12938.3
-13445.3
-14003.9
-14614.9
-15278
-15992.2
-16755.5
-17564.5
-18415.2
-19301.7
-20217.1
-21152.7
-22098.1
-23041.1
-23967.1
-24859.3
-25698.1
-26460.4
-27119.7
-27645.3
-28001.7
-28149.3
-28044
-27639.3
-26888.6
-25748.9
-24185.1
-22173.7
-19700.2
-16742.5
-13205.7
-8705.48
-7122.9
-8520.97
-9138.97
-9464.12
-9666.64
-9815
-9941.1
-10062.2
-10188.9
-10328.9
-10488
-10671.4
-10883.5
-11128.5
-11410.3
-11732.5
-12098.3
-12510.7
-12972.2
-13484.6
-14049.3
-14667
-15337.4
-16059.5
-16831.2
-17649.3
-18509.5
-19406.1
-20332
-21278.4
-22234.8
-23188.8
-24125.9
-25028.8
-25877.7
-26649.5
-27317.1
-27849.5
-28210.9
-28361
-28255.4
-27846.9
-27088.4
-25936.5
-24355.6
-22322.1
-19821.7
-16832.8
-13261.4
-8724.28
-7122.9
-8520.97
-9138.97
-9464.12
-9666.64
-9815
-9941.1
-10062.2
-10188.9
-10328.9
-10488
-10671.4
-10883.5
-11128.5
-11410.3
-11732.5
-12098.3
-12510.7
-12972.2
-13484.6
-14049.3
-14667
-15337.4
-16059.5
-16831.2
-17649.3
-18509.5
-19406.1
-20332
-21278.4
-22234.8
-23188.8
-24125.9
-25028.8
-25877.7
-26649.4
-27317.1
-27849.5
-28210.9
-28361
-28255.4
-27846.9
-27088.5
-25936.5
-24355.6
-22322.1
-19821.7
-16832.8
-13261.4
-8724.28
-7122.73
-8520.45
-9138.06
-9462.78
-9664.79
-9812.53
-9937.9
-10058.1
-10183.7
-10322.4
-10480
-10661.6
-10871.5
-11114
-11392.9
-11711.7
-12073.7
-12481.7
-12938.3
-13445.2
-14003.9
-14614.9
-15278
-15992.2
-16755.4
-17564.5
-18415.2
-19301.7
-20217.1
-21152.7
-22098.1
-23041.1
-23967.1
-24859.3
-25698.1
-26460.4
-27119.7
-27645.2
-28001.7
-28149.3
-28044
-27639.3
-26888.6
-25748.9
-24185.1
-22173.7
-19700.2
-16742.5
-13205.8
-8705.48
-7122.39
-8519.42
-9136.27
-9460.13
-9661.13
-9807.68
-9931.59
-10050
-10173.6
-10309.7
-10464.3
-10642.2
-10847.9
-11085.4
-11358.6
-11670.8
-12025.2
-12424.7
-12871.6
-13367.8
-13914.5
-14512.4
-15161.3
-15859.9
-16606.5
-17397.7
-18229.5
-19096.3
-19991
-20905.4
-21829.2
-22750.4
-23654.8
-24526
-25344.7
-26088.6
-26731.6
-27243.7
-27590.5
-27733
-27628.4
-27231.1
-26495.7
-25380.2
-23850.1
-21882.1
-19461.5
-16565.1
-13096.4
-8668.55
-7121.9
-8517.91
-9133.66
-9456.26
-9655.79
-9800.57
-9922.36
-10038.2
-10158.7
-10291.1
-10441.2
-10613.9
-10813.4
-11043.7
-11308.4
-11610.9
-11954.3
-12341.3
-12774.1
-13254.6
-13784
-14362.7
-14990.7
-15666.7
-16388.9
-17154.2
-17958.5
-18796.4
-19661.1
-20544.6
-21436.8
-22326.3
-23199.3
-24039.9
-24829.5
-25546.5
-26165.8
-26658.4
-26991.1
-27126.4
-27022.7
-26636.4
-25923.3
-24843
-23361.9
-21457.2
-19113.7
-16306.7
-12937.2
-8614.75
-7121.26
-8515.96
-9130.29
-9451.27
-9648.9
-9791.41
-9910.47
-10023
-10139.5
-10267.1
-10411.6
-10577.5
-10769
-10990
-11243.9
-11534
-11863.2
-12234.1
-12648.9
-13109.2
-13616.3
-14170.5
-14771.6
-15418.6
-16109.6
-16841.6
-17610.6
-18411.5
-19237.8
-20081.6
-20933.5
-21782.4
-22615.2
-23416.7
-24169
-24851.7
-25440.7
-25908.5
-26223.3
-26349.3
-26247.1
-25874.9
-25190.5
-24155.3
-22737.1
-20913.5
-18668.7
-15976.1
-12733.4
-8545.91
-7120.5
-8513.63
-9126.25
-9445.29
-9640.65
-9780.46
-9896.25
-10004.9
-10116.6
-10238.5
-10376.1
-10533.9
-10716
-10925.8
-11166.9
-11442.2
-11754.5
-12106.3
-12499.5
-12935.9
-13416.3
-13941.3
-14510.5
-15123
-15776.9
-16469.3
-17196.5
-17953.5
-18734.1
-19530.9
-20334.9
-21135.7
-21920.8
-22675.9
-23384.2
-24026.2
-24579.5
-25018
-25311.7
-25427
-25326.6
-24971.2
-24321.1
-23339.6
-21996.1
-20268.7
-18140.9
-15584
-12491.8
-8464.29
-7119.63
-8510.98
-9121.66
-9438.49
-9631.27
-9768
-9880.08
-9984.23
-10090.6
-10206
-10335.9
-10484.6
-10655.8
-10853.1
-11079.6
-11338.1
-11631.3
-11961.4
-12330.3
-12739.5
-13189.9
-13681.8
-14215.1
-14788.6
-15400.6
-16048.3
-16728.2
-17435.7
-18164.8
-18908.7
-19658.9
-20405.5
-21137
-21840
-22498.8
-23095.3
-23608.5
-24014.2
-24284.4
-24387.8
-24289.8
-23953.6
-23342.3
-22421.4
-21162.1
-19543.1
-17547.1
-15142.9
-12220
-8372.47
-7118.68
-8508.06
-9116.61
-9431.02
-9620.97
-9754.33
-9862.37
-9961.62
-10062.1
-10170.5
-10291.9
-10430.6
-10590.1
-10773.7
-10984.3
-11224.5
-11496.9
-11803.4
-12145.8
-12525.5
-12943.2
-13399.2
-13893.3
-14424.5
-14991
-15590.3
-16219
-16872.8
-17546.2
-18232.7
-18924.6
-19612.7
-20286.4
-20933.1
-21538.5
-22086
-22556.1
-22926.5
-23171.6
-23262.5
-23167.4
-22852.3
-22283.1
-21428
-20260
-18758.4
-16905.1
-14666
-11926.2
-8273.22
-7117.66
-8504.94
-9111.21
-9423.05
-9609.99
-9739.76
-9843.5
-9937.57
-10031.8
-10132.7
-10245.2
-10373.3
-10520.4
-10689.5
-10883.3
-11104.3
-11354.7
-11636.3
-11950.8
-12299.3
-12682.6
-13100.8
-13553.7
-14040.3
-14559
-15107.4
-15682.3
-16279.7
-16894.7
-17521.1
-18151.9
-18778.8
-19391.8
-19979.8
-20529.5
-21025.8
-21451.1
-21784.9
-22004.1
-22082.2
-21990.4
-21697.8
-21173.2
-20387.4
-19315.2
-17936.7
-16232.9
-14166.8
-11618.7
-8169.33
-7116.59
-8501.67
-9105.56
-9414.7
-9598.51
-9724.57
-9823.85
-9912.56
-10000.3
-10093.5
-10196.9
-10314.1
-10448.4
-10602.6
-10779.1
-10980.2
-11208
-11464
-11749.8
-12066.3
-12414.2
-12793.7
-13204.4
-13645.3
-14115
-14611.3
-15131.2
-15671.1
-16226.3
-16791.5
-17360
-17924.5
-18475.9
-19004.1
-19497.3
-19941.7
-20321.6
-20618.5
-20811.6
-20877.3
-20789.3
-20520
-20041.3
-19326.4
-18352.2
-17099.4
-15548
-13658.3
-11305.4
-8063.51
-7115.48
-8498.29
-9099.72
-9406.1
-9586.71
-9708.98
-9803.74
-9887.02
-9968.26
-10053.7
-10147.7
-10254
-10375.4
-10514.6
-10673.7
-10854.9
-11059.9
-11290.2
-11547.2
-11831.6
-12144.1
-12484.7
-12853
-13248.3
-13669
-14113.2
-14578.1
-15060.5
-15556.2
-16060.3
-16566.9
-17069.3
-17559.5
-18028.5
-18465.6
-18858.8
-19193.8
-19454.4
-19622.1
-19675.7
-19592.1
-19346.6
-18913.9
-18270
-17393.7
-16266.2
-14866.7
-13152.4
-10993.8
-7958.27
-7114.34
-8494.81
-9093.72
-9397.3
-9574.67
-9693.15
-9783.39
-9861.26
-9936.04
-10013.7
-10098.6
-10194
-10302.7
-10427
-10569
-10730.6
-10913.2
-11118.2
-11346.8
-11599.7
-11877.3
-12179.7
-12506.5
-12857
-13229.7
-13622.9
-14034.1
-14460.4
-14897.9
-15342.4
-15788.7
-16230.7
-16661.4
-17072.8
-17455.6
-17799.1
-18090.9
-18316.6
-18460
-18502.5
-18423.8
-18201.9
-17814.5
-17240.3
-16459.7
-15454.5
-14203.1
-12659.9
-10690.5
-7855.82
-7113.16
-8491.21
-9087.55
-9388.28
-9562.41
-9677.1
-9762.88
-9835.45
-9903.91
-9974.07
-10050
-10134.9
-10231.3
-10341.2
-10466.6
-10609.1
-10770.1
-10950.7
-11151.9
-11374.3
-11618.3
-11883.9
-12170.7
-12478
-12804.6
-13148.8
-13508.5
-13880.9
-14262.8
-14650.3
-15038.9
-15423.2
-15797.3
-16153.9
-16485.2
-16781.6
-17032.5
-17225.4
-17346.1
-17378.5
-17305
-17106.3
-16762.9
-16255.7
-15566.8
-14678.9
-13569.2
-12189.4
-10400.8
-7757.98
-7111.91
-8487.42
-9081.09
-9378.9
-9549.76
-9660.7
-9742.11
-9809.53
-9871.88
-9934.81
-10002.2
-10077.1
-10161.6
-10257.9
-10367.5
-10491.8
-10632.2
-10789.6
-10964.7
-11158.2
-11370.4
-11601.1
-11850.1
-12116.6
-12399.6
-12697.5
-13008.6
-13330.3
-13659.8
-13993.8
-14328.2
-14658.6
-14979.5
-15285.1
-15568.2
-15820.8
-16033.8
-16196.4
-16296.4
-16320.1
-16252
-16075.7
-15774.1
-15330.3
-14728.1
-13950.6
-12974.1
-11747.8
-10128.9
-7666.17
-7110.55
-8483.29
-9074.09
-9368.85
-9536.37
-9643.57
-9720.69
-9783.14
-9839.66
-9895.72
-9955.05
-10020.4
-10093.9
-10177.2
-10272
-10379.4
-10500.4
-10636.1
-10786.9
-10953.4
-11135.8
-11334
-11547.7
-11776.2
-12018.7
-12273.7
-12539.6
-12814.3
-13095.4
-13379.8
-13664.3
-13944.9
-14217.1
-14475.6
-14714.6
-14927.3
-15105.7
-15240.9
-15322.5
-15338.6
-15276.2
-15121.2
-14858.8
-14474.2
-13952.5
-13277.3
-12424.1
-11339.9
-9877.77
-7581.37
-7108.96
-8478.52
-9066.1
-9357.53
-9521.55
-9624.95
-9697.84
-9755.48
-9806.45
-9856.04
-9907.81
-9964.3
-10027.5
-10098.9
-10179.9
-10271.6
-10374.8
-10490.4
-10618.8
-10760.4
-10915.4
-11083.7
-11265
-11458.7
-11664
-11879.6
-12104.3
-12336.1
-12573
-12812.4
-13051.5
-13286.9
-13514.9
-13731
-13930.2
-14106.9
-14254.5
-14365.3
-14430.6
-14440.5
-14384
-14249.1
-14023.1
-13692.9
-13245
-12663.3
-11922.7
-10968
-9648.88
-7504.08
-7106.98
-8472.61
-9056.31
-9343.91
-9504.07
-9603.49
-9672.13
-9725.09
-9770.77
-9814.3
-9859.04
-9907.37
-9961.09
-10021.6
-10090
-10167.3
-10254.3
-10351.5
-10459.5
-10578.5
-10708.6
-10849.8
-11001.7
-11163.8
-11335.5
-11515.6
-11703
-11896.2
-12093.4
-12292.3
-12490.7
-12685.7
-12874.2
-13052.5
-13216.4
-13361.3
-13481.7
-13571.2
-13622.5
-13627.6
-13577
-13460.8
-13268.1
-12987.4
-12606.4
-12109.3
-11470.4
-10632.6
-9442.44
-7434.38
-7104.29
-8464.62
-9043.28
-9326.14
-9481.81
-9576.87
-9641.11
-9689.42
-9730.03
-9767.86
-9806.11
-9846.96
-9892.05
-9942.62
-9999.67
-10064
-10136.3
-10217
-10306.5
-10405.2
-10512.9
-10629.7
-10755.2
-10889.1
-11030.7
-11179.1
-11333.3
-11492.1
-11653.9
-11817
-11979.4
-12138.7
-12292.3
-12437.4
-12570.4
-12687.5
-12784.2
-12855.4
-12895
-12896.4
-12851.8
-12752.9
-12590.5
-12354.5
-12033.6
-11612.4
-11064.7
-10331.7
-9257.24
-7371.84
-7100.28
-8452.86
-9024.4
-9300.95
-9451.03
-9541.04
-9600.51
-9644.1
-9679.77
-9712.24
-9744.47
-9778.49
-9815.76
-9857.37
-9904.17
-9956.85
-10016
-10081.9
-10155
-10235.4
-10323.2
-10418.3
-10520.4
-10629.2
-10744.1
-10864.5
-10989.4
-11117.8
-11248.5
-11380.1
-11510.8
-11638.9
-11762.2
-11878.3
-11984.5
-12077.7
-12154.1
-12209.7
-12239.7
-12238.5
-12199.9
-12117
-11982
-11786.3
-11519.2
-11166
-10700
-10061
-9090.42
-7315.47
-7093.75
-8433.95
-8994.65
-9262.16
-9404.83
-9488.66
-9542.76
-9581.37
-9612.14
-9639.48
-9666.13
-9693.91
-9724.11
-9757.65
-9795.28
-9837.55
-9884.91
-9937.71
-9996.17
-10060.4
-10130.5
-10206.4
-10287.8
-10374.4
-10465.8
-10561.5
-10660.7
-10762.5
-10866
-10970
-11073.3
-11174.2
-11271.2
-11362.4
-11445.5
-11518.1
-11577.4
-11619.9
-11642.1
-11639.3
-11606.7
-11538.6
-11428.5
-11268.9
-11050.3
-10758.2
-10365.9
-9812.23
-8936.74
-7263.45
-7082.07
-8400.72
-8943.7
-9197.53
-9329.85
-9405.75
-9453.51
-9486.72
-9512.49
-9534.86
-9556.27
-9578.32
-9602.1
-9628.39
-9657.79
-9690.76
-9727.66
-9768.75
-9814.21
-9864.14
-9918.57
-9977.41
-10040.5
-10107.6
-10178.4
-10252.3
-10328.9
-10407.5
-10487.2
-10567.2
-10646.6
-10724
-10798.3
-10868
-10931.3
-10986.4
-11031.1
-11062.9
-11078.8
-11075.3
-11048.7
-10994.3
-10906.9
-10780.1
-10605.5
-10369.3
-10045
-9571.33
-8786.64
-7212.31
-7058.63
-8336.28
-8848.41
-9080.57
-9197.96
-9263.41
-9303.5
-9330.66
-9351.22
-9368.68
-9385.12
-9401.85
-9419.76
-9439.47
-9461.47
-9486.09
-9513.61
-9544.23
-9578.08
-9615.24
-9655.71
-9699.44
-9746.3
-9796.1
-9848.56
-9903.34
-9960.02
-10018.1
-10077
-10136.1
-10194.5
-10251.5
-10306.1
-10357.2
-10403.5
-10443.7
-10476.1
-10498.9
-10509.8
-10506.4
-10485.6
-10444.1
-10377.7
-10281.3
-10147.4
-9963.62
-9704.67
-9310.53
-8620.4
-7154.51
-7004.31
-8196.06
-8651.56
-8848.58
-8944.24
-8995.81
-9026.54
-9046.85
-9061.9
-9074.44
-9086.08
-9097.81
-9110.29
-9123.98
-9139.21
-9156.24
-9175.26
-9196.4
-9219.76
-9245.39
-9273.29
-9303.42
-9335.69
-9369.95
-9406.03
-9443.68
-9482.61
-9522.46
-9562.85
-9603.3
-9643.29
-9682.24
-9719.49
-9754.3
-9785.81
-9813.07
-9834.95
-9850.18
-9857.25
-9854.39
-9839.56
-9810.3
-9763.66
-9695.72
-9600.65
-9467.99
-9275.42
-8967.57
-8390.33
-7069.86
-6853.19
-7847.74
-8196.11
-8336.45
-8401.12
-8434.75
-8454.26
-8466.9
-8476.11
-8483.68
-8490.62
-8497.58
-8504.94
-8512.99
-8521.94
-8531.93
-8543.08
-8555.47
-8569.16
-8584.17
-8600.5
-8618.13
-8637.01
-8657.04
-8678.12
-8700.12
-8722.84
-8746.1
-8769.65
-8793.22
-8816.51
-8839.17
-8860.83
-8881.04
-8899.31
-8915.08
-8927.7
-8936.42
-8940.36
-8938.48
-8929.57
-8912.17
-8884.46
-8844
-8786.95
-8706.06
-8584.93
-8380.05
-7960.81
-6891.34
-6334.83
-6853.19
-7004.33
-7058.7
-7082.22
-7094.04
-7100.76
-7105.06
-7108.17
-7110.7
-7113.01
-7115.31
-7117.74
-7120.4
-7123.35
-7126.65
-7130.32
-7134.4
-7138.91
-7143.85
-7149.23
-7155.03
-7161.24
-7167.83
-7174.76
-7181.99
-7189.46
-7197.1
-7204.84
-7212.58
-7220.22
-7227.66
-7234.76
-7241.39
-7247.37
-7252.53
-7256.65
-7259.49
-7260.75
-7260.1
-7257.12
-7251.35
-7242.15
-7228.71
-7209.64
-7182.31
-7140.25
-7064.7
-6890.3
-6347.35
-1402.75
-2232.86
-2528.53
-2653.28
-2713.96
-2747.2
-2767.47
-2781.27
-2791.79
-2800.78
-2809.27
-2817.91
-2827.12
-2837.21
-2848.39
-2860.84
-2874.66
-2889.94
-2906.72
-2925.01
-2944.79
-2966
-2988.55
-3012.31
-3037.13
-3062.82
-3089.14
-3115.85
-3142.64
-3169.2
-3195.16
-3220.13
-3243.68
-3265.33
-3284.53
-3300.68
-3313.07
-3320.92
-3323.28
-3319.06
-3306.99
-3285.56
-3252.94
-3206.73
-3143.33
-3056.32
-2931.84
-2734.51
-2359.38
-1445.42
-2232.84
-3948.15
-4665.76
-4997.38
-5166.78
-5262.13
-5321.26
-5361.94
-5393.24
-5420.17
-5445.73
-5471.8
-5499.67
-5530.24
-5564.16
-5601.91
-5643.86
-5690.24
-5741.18
-5796.72
-5856.79
-5921.21
-5989.72
-6061.95
-6137.4
-6215.51
-6295.57
-6376.82
-6458.36
-6539.22
-6618.3
-6694.4
-6766.21
-6832.25
-6890.89
-6940.26
-6978.26
-7002.44
-7009.96
-6997.51
-6961.25
-6896.63
-6798.21
-6658.94
-6468.61
-6209.6
-5845.92
-5293.23
-4333.58
-2362.85
-2528.44
-4665.58
-5635.22
-6111.84
-6366.33
-6514.13
-6607.98
-6673.76
-6725.17
-6769.96
-6812.86
-6856.9
-6904.14
-6956.08
-7013.8
-7078.12
-7149.61
-7228.7
-7315.6
-7410.39
-7512.94
-7622.97
-7740.04
-7863.5
-7992.54
-8126.18
-8263.25
-8402.43
-8542.21
-8680.91
-8816.66
-8947.43
-9070.94
-9184.68
-9285.85
-9371.25
-9437.25
-9479.67
-9493.67
-9473.6
-9412.94
-9304.1
-9138.07
-8903.59
-8584.97
-8156.53
-7568.72
-6712.66
-5327.45
-2751.7
-2653.02
-4996.72
-6111.17
-6683.09
-6999.85
-7189.51
-7313.09
-7401.73
-7472.42
-7535.07
-7595.81
-7658.69
-7726.51
-7801.31
-7884.59
-7977.51
-8080.9
-8195.34
-8321.16
-8458.47
-8607.11
-8766.69
-8936.57
-9115.83
-9303.33
-9497.65
-9697.11
-9899.81
-10103.6
-10305.9
-10504.3
-10695.5
-10876.5
-11043.4
-11192.2
-11318.2
-11416.2
-11480.1
-11502.7
-11476
-11390.6
-11235.7
-10998.9
-10664.9
-10213.9
-9615.01
-8811.74
-7685.64
-5964.03
-2979.34
-2713.38
-5165.22
-6364.27
-6998.17
-7359.53
-7581.87
-7730.57
-7839.94
-7929.21
-8009.88
-8089.25
-8172.22
-8262.27
-8361.96
-8473.23
-8597.55
-8736.04
-8889.45
-9058.25
-9242.58
-9442.25
-9656.77
-9885.3
-10126.6
-10379.3
-10641.3
-10910.6
-11184.5
-11460.1
-11734.3
-12003.3
-12263.1
-12509.3
-12737
-12940.5
-13113.6
-13249.2
-13338.8
-13373.2
-13341.2
-13230.6
-13027
-12714.4
-12274.2
-11683
-10906.7
-9886.14
-8500.78
-6478
-3156.27
-2746.11
-5259.06
-6509.69
-7184.73
-7578.37
-7826.42
-7996.55
-8124.95
-8232.38
-8331.52
-8430.6
-8535.29
-8649.67
-8776.8
-8919.07
-9078.29
-9255.85
-9452.75
-9669.57
-9906.52
-10163.4
-10439.6
-10734
-11045.3
-11371.4
-11710.1
-12058.4
-12413.2
-12770.6
-13126.6
-13476.5
-13815
-14136.5
-14434.4
-14701.7
-14930
-15110.1
-15231.2
-15281.1
-15245.7
-15109
-14853.2
-14458.5
-13902.6
-13159.2
-12192.4
-10942.3
-9290.07
-6967.72
-3322.59
-2765.61
-5315.89
-6599.81
-7303.33
-7721.1
-7990
-8178.92
-8325.26
-8450.82
-8569.19
-8689.39
-8817.74
-8958.92
-9116.5
-9293.29
-9491.5
-9712.81
-9958.47
-10229.2
-10525.3
-10846.6
-11192.4
-11561.4
-11951.7
-12361.2
-12786.8
-13225.1
-13672.1
-14123.1
-14573
-15015.8
-15445.1
-15853.6
-16233.2
-16574.8
-16868
-17101.1
-17260.4
-17330.6
-17293.9
-17130.4
-16818.1
-16333.1
-15649.5
-14738.1
-13561.6
-12061.1
-10121.1
-7480.24
-3495.9
-2778.29
-5353.24
-6660.13
-7384.53
-7821.28
-8107.86
-8313.92
-8477.67
-8621.71
-8760.37
-8903.36
-9057.62
-9228.4
-9419.79
-9635.05
-9876.8
-10147.1
-10447.4
-10778.6
-11141.3
-11535.1
-11959.2
-12412.3
-12892.1
-13396
-13920.3
-14460.9
-15012.9
-15570.7
-16127.9
-16677.3
-17211
-17720
-18194.2
-18622.3
-18991.5
-19287.2
-19492.5
-19588.4
-19552.8
-19361.6
-18987.9
-18403.3
-17577.8
-16479.3
-15069.4
-13290.7
-11032.4
-8041.07
-3685.28
-2787.26
-5379.91
-6703.87
-7444.65
-7897.26
-8199.61
-8421.93
-8603.07
-8766.28
-8926.55
-9094.22
-9276.85
-9480.24
-9709.04
-9966.99
-10257.2
-10582
-10943.2
-11342.1
-11779.1
-12254.1
-12766.2
-13313.6
-13894
-14504.1
-15139.8
-15796
-16466.9
-17145.8
-17825.1
-18496.1
-19149
-19773
-20356
-20884
-21341.4
-21710.3
-21970.2
-22097.7
-22066.3
-21846.4
-21406.1
-20711.4
-19728.1
-18420.7
-16750.1
-14660.7
-12047.1
-8665.13
-3895.93
-2794.17
-5400.59
-6738.27
-7492.8
-7959.48
-8276.6
-8514.89
-8713.76
-8897.08
-9080.45
-9274.82
-9488.37
-9727.51
-9997.43
-10302.4
-10646.1
-11031.1
-11459.8
-11933.6
-12453.1
-13018.2
-13628
-14280.6
-14973.1
-15701.8
-16461.9
-17247.5
-18051.9
-18867
-19683.7
-20491.7
-21279.5
-22034.1
-22740.6
-23382.6
-23941.2
-24394.6
-24718.4
-24884.1
-24860
-24610.7
-24098.1
-23282.6
-22124.5
-20585.1
-18624.1
-16188.2
-13178.5
-9360.9
-4130.77
-2799.92
-5417.92
-6767.42
-7534.26
-8014.06
-8345.53
-8599.89
-8817.09
-9021.59
-9229.62
-9452.75
-9699.78
-9977.76
-10292.5
-10648.8
-11050.8
-11501.8
-12004.4
-12560.3
-13170.3
-13834.4
-14551.7
-15320
-16136.1
-16995.8
-17893.5
-18822.4
-19774.7
-20741
-21710.6
-22671.5
-23610
-24510.6
-25356
-26126.3
-26799.2
-27348.9
-27745.9
-27956.7
-27943.4
-27664.1
-27073.9
-26126.4
-24776.5
-22981.4
-20699.5
-17880.4
-14432
-10131.9
-4390.99
-2805.03
-5433.4
-6793.69
-7572.09
-8064.58
-8410.35
-8681.09
-8917.35
-9144.15
-9378.35
-9632.19
-9915.13
-10234.9
-10597.8
-11009.5
-11474.6
-11996.9
-12579.3
-13224.1
-13932.2
-14703.8
-15537.8
-16431.9
-17382.6
-18384.9
-19432.7
-20518.2
-21632.3
-22764.3
-23901.8
-25030.7
-26135.1
-27197
-28196
-29108.8
-29909
-30566.3
-31046
-31308.8
-31309.9
-31000.2
-30327.4
-29237.7
-27679.5
-25605.6
-22973.3
-19734.8
-15806
-10977
-4676.3
-2809.8
-5447.88
-6818.43
-7608.02
-8113.08
-8473.26
-8760.81
-9016.82
-9266.95
-9528.71
-9814.99
-10136
-10500
-10914.3
-11384.9
-11917.1
-12515.4
-13183.1
-13922.8
-14735.8
-15622.3
-16581.2
-17610.2
-18705.2
-19860.8
-21070
-22324.1
-23612.7
-24923.5
-26242.4
-27553.3
-28837.7
-30074.9
-31241
-32309.3
-33248.9
-34024.6
-34596
-34917.3
-34936.4
-34596.5
-33836.7
-32595.5
-30814
-28440.5
-25430.6
-21739.6
-17291.7
-11891.1
-4984.87
-2814.38
-5461.81
-6842.33
-7642.95
-8160.57
-8535.35
-8840.07
-9116.43
-9390.73
-9681.14
-10001.3
-10362
-10772.4
-11240.4
-11772.8
-12375.5
-13053.5
-13810.8
-14650.3
-15573.7
-16581.3
-17672
-18843.2
-20090.6
-21408.3
-22788.3
-24221
-25694.6
-27195.4
-28707.3
-30211.9
-31688.3
-33112.7
-34457.8
-35692.8
-36782.4
-37685.9
-38357
-38742.8
-38783.5
-38413.7
-37563.8
-36163.4
-34146.4
-31455.5
-28044.9
-23873.1
-18873.1
-12864.2
-5313.41
-2818.83
-5475.39
-6865.7
-7677.25
-8207.41
-8596.88
-8919.02
-9216.12
-9515.13
-9834.92
-10189.8
-10591.4
-11049.6
-11573
-12169.1
-12844.5
-13605
-14454.9
-15397.6
-16435.1
-17568.1
-18795.3
-20114.1
-21519.8
-23005.9
-24563.6
-26182.2
-27848.8
-29547.7
-31261.2
-32968.5
-34646
-36266.7
-37799.9
-39210.5
-40458.3
-41497.2
-42274.5
-42729.7
-42795.2
-42396.4
-41454.4
-39889.7
-37628.1
-34606.9
-30778.3
-26104.4
-20527.5
-13882.3
-5657.16
-2823.17
-5488.65
-6888.56
-7710.87
-8253.47
-8657.59
-8997.16
-9315.08
-9638.98
-9988.4
-10378.4
-10821.3
-11327.8
-11907.3
-12567.9
-13317.1
-14161.1
-15104.9
-16152.5
-17306.1
-18566.5
-19932.7
-21401.7
-22968.7
-24626.4
-26365.5
-28174.1
-30037.9
-31939.7
-33859.8
-35775
-37659
-39481.7
-41208.6
-42800.3
-44211.8
-45391.1
-46279
-46807.4
-46900.3
-46473.8
-45439.3
-43707.9
-41197.1
-37838.4
-33582.1
-28393.7
-22225.2
-14927.2
-6009.98
-2827.38
-5501.49