/*--------------------------------*- C++ -*----------------------------------*\
| =========                 |                                                 |
| \\      /  F ield         | OpenFOAM: The Open Source CFD Toolbox           |
|  \\    /   O peration     | Version:  5.x                                   |
|   \\  /    A nd           | Web:      www.OpenFOAM.org                      |
|    \\/     M anipulation  |                                                 |
\*---------------------------------------------------------------------------*/
FoamFile
{
    version     2.0;
    format      ascii;
    class       volScalarField;
    location    "0.2";
    object      gradTy;
}
// * * * * * * * * * * * * * * * * * * * * * * * * * * * * * * * * * * * * * //

dimensions      [0 -1 0 1 0 0 0];

internalField   nonuniform List<scalar> 
25000
(
4717.3
9130.05
11610.4
13201.9
14327.9
15192.6
15909.2
16548.2
17157.4
17771.5
18416.4
19112.4
19875.2
20716.9
21646.6
22670.3
23791.2
25009.6
26323.2
27726.7
29211.9
30768.3
32382.5
34038.8
35719.6
37405.1
39074.6
40705.8
42275.8
43761.4
45138.8
46384.2
47473.4
48382
49084.4
49553.6
49760.6
49672.9
49254.7
48465.6
47261.2
45593.8
43413.5
40669.9
37312.6
33287.5
28521.3
22877
16025
7038.65
1999.52
4887.32
6863.56
8260.11
9301.16
10126.5
10825.7
11459.5
12071.3
12693.4
13350.9
14063.4
14846.5
15712.2
16669.6
17724.6
18880.7
20138
21494.3
22944
24479.1
26088.5
27758.6
29473.4
31214.6
32962.2
34694.5
36388.8
38021.4
39568.1
41004.5
42305.7
43446.7
44401.8
45144.6
45646.9
45878.1
45804.7
45389
44589.4
43359.8
41651.3
39413.6
36597.1
33155.4
29044.3
24215.7
18599.8
12070.4
4418
1086.9
2965.64
4446.72
5599.4
6517.67
7281.6
7953.19
8579.79
9198.05
9836.93
10519.7
11265.1
12088.3
13001.5
14013.5
15130.6
16356.1
17690.4
19130.9
20672.3
22305.8
24020
25800.8
27631.3
29492.2
31362.6
33219.4
35038.7
36795.2
38463.2
40016.5
41428.6
42672.4
43720.3
44543.6
45111.7
45391.5
45346.6
44936.4
44116.1
42836.6
41046.3
38693.5
35729.7
32113.8
27815.5
22817.5
17115
10720.5
3698.17
693.491
1984.41
3097.68
4034.84
4831.46
5530.79
6173.6
6795.34
7426.05
8091.06
8811.7
9605.87
10488.4
11471.2
12563.6
13771.8
15099.4
16546.8
18111.3
19787.2
21565.5
23434
25377.7
27378.5
29415.9
31467.2
33507.7
35511.4
37450.9
39298.2
41024.6
42600.9
43997.1
45182.8
46125.7
46791.9
47144.5
47142.8
46741.6
45891.4
44538.3
42626.7
40101.7
36914.9
33029.9
28429.1
23120.5
17144.9
10585.5
3590.04
489.818
1432.53
2293.77
3064.95
3760.23
4404.13
5024.17
5647.24
6298.15
6999.21
7770.1
8627.98
9587.48
10660.7
11857
13183.1
14642.7
16236.3
17961.2
19811.4
21777.1
23845.6
26000.4
28222.1
30488.6
32775
35054.3
37298
39475.9
41557.1
43509.4
45300.3
46896.2
48262.5
49362.8
50158.6
50607.7
50663.9
50276.2
49388.3
47940
45869.5
43117.5
39633.3
35383.3
30359.5
24588.9
18141.5
11138.6
3758.91
372.334
1101.91
1795.51
2448.12
3067.92
3671.31
4278.66
4911.59
5591.43
6338.36
7170.99
8106.05
9158.23
10339.9
11660.9
13128.3
14746.2
16515.2
18432.5
20491.8
22682.8
24991.5
27400.2
29887.9
32430.2
35000
37567.6
40101.3
42567.6
44931.9
47158.3
49210
51048.9
52635.7
53928.8
54883.7
55452.3
55581.4
55212.4
54281
52718.8
50455.9
47426.3
43575.3
38869.6
33307.4
26929.5
19827.6
12148.7
4093.49
300.965
897.642
1482.11
2054.88
2623.91
3202.87
3808.89
4460.88
5178.23
5980
6884.29
7907.85
9065.68
10370.7
11833.3
13461.2
15258.8
17227
19363.1
21660.2
24107.5
26689.8
29388
32179.1
35036.5
37930.4
40827.9
43693.9
46491.3
49181.2
51723.2
54075.9
56195.9
58038.4
59555.7
60696.8
61406.2
61622.7
61278.7
60300.5
58609.7
56126.4
52776
48497.9
43256.4
37053.9
29941.9
22030.2
13488.9
4542.92
257.072
771.195
1286.85
1809.39
2348.48
2917.6
3532.95
4212.44
4974.73
5838.57
6822.15
7942.6
9215.57
10654.7
12271.1
14073.3
16066.1
18250.9
20624.8
23180.8
25907.1
28787.7
31801.8
34924.4
38126.5
41375.2
44634.5
47865.5
51027
54075.6
56966.2
59651.9
62083.8
64210.8
65978.7
67329
68198
68515.4
68203.7
67178.2
65349
62624.9
58920.9
54168.2
48327.5
41403.2
33456.2
24613.2
15068.2
5074.27
230.593
694.921
1169.5
1663.55
2188.92
2760.02
3393.36
4106.92
4919.51
5850.16
6917.62
8139.74
9533.02
11112
12888.9
14872.7
17069.2
19479.9
22102.3
24928.8
27947.2
31140.2
34485.6
37956.2
41520.5
45142.8
48783.7
52400.3
55947.2
59376.2
62637.2
65677.8
68443
70875.1
72912.8
74489.7
75533.2
75963.4
75691.6
74621.4
72650.3
69674.2
65596.5
60339
53857.1
46156.1
37305.4
27448.9
16805.4
5659.4
215.418
651.503
1103.82
1584.62
2107.91
2689.47
3346.73
4098.34
4963.78
5962.83
7115.06
8439.3
9953.08
11672
13609.3
15774.8
18175.1
20812.2
23683.6
26781.7
30093.6
33600.9
37280
41101.7
45032.2
49032.6
53060.3
57068.7
61007.9
64825.2
68465.3
71869.9
74978.2
77725.7
80043.6
81857.4
83085.4
83637.2
83413.1
82304
80194
76965.8
72509.8
66737.6
59598.5
51097.8
41313
30404.7
18617.8
6270.22
207.475
629.172
1071.42
1548.9
2077.51
2674.5
3358.46
4149.03
5066.61
6131.95
7365.63
8787.57
10416.4
12268.9
14359.3
16698.4
19293.5
22147.3
25257.3
28615.9
32209.7
36019.5
40020.1
44180.9
48465.4
52832.5
57235.9
61625.7
65947.9
70145.2
74157.2
77920.5
81368
84428.7
87026.4
89078.6
90494.3
91173.1
91003.7
89864.5
87626.2
84157.6
79336.3
73063.1
65280.6
55993.6
45287
33338.2
20417.7
6876.99
203.849
619.391
1058.7
1538.33
2075.82
2689.78
3399.96
4227.04
5192.45
6317.95
7625.17
9135.14
10867.6
12840.4
15068.7
17564.4
20335.6
23385.2
26711.5
30306.6
34156.8
38242.2
42536.5
47007.6
51617
56321.1
61071.2
65813.8
70491.3
75042.3
79402
83501.8
87269
90626.5
93491.2
95772.8
97371.9
98178
98069.1
96911.4
94562.7
90878.6
85724
78989.1
70609.8
60590
49021.4
36096.7
22111
7447.99
202.34
615.663
1055.1
1538.67
2085.17
2714.37
3447.02
4304.79
5310
6485.37
7853.47
9436.31
11254.6
13327.2
15670.3
18296.6
21214.6
24428.3
27936
31730
35796.5
40115
44658.6
49393.7
54280.6
59273.7
64322
69369.3
74355.1
79214.6
83878.8
88274.9
92325.5
95947.9
99053
101544
103312
104240
104196
103034
100600
96738.4
91302.2
84172
75277.1
64620.4
52299.2
38519.9
23599.3
7950
201.236
612.899
1052.3
1538.44
2091.07
2730.77
3479.09
4358.4
5391.76
6602.58
8014.2
9649.38
11529.6
13674.6
16101.1
18822.7
21848.6
25183.1
28825.1
32767
36995
41488.5
46220.1
51155.6
56254.3
61469.3
66747.9
72032.3
77259.5
82362.3
87268.6
91902.4
96182.3
100021
103326
105992
107908
108946
108966
107815
105329
101341
95695.4
88263.3
78969.2
67814.4
54900.7
40445.3
24782.8
8349.35
199.191
607.074
1043.61
1528.39
2081.66
2724.5
3478.87
4367.55
5414
6642.02
8075.38
9737.3
11649.7
13832.8
16304
19077.2
22162.2
25563.8
29281.1
33307.1
37628.1
42223.6
47066.3
52121.7
57348.8
62700.3
68122.8
73557.3
78939.9
84201.7
89269
94063.4
98501.4
102493
105941
108738
110767
111896
111979
110857
108357
104306
98540.2
90925.9
81382.5
69909.9
56612.6
41715.3
25564.7
8613.39
195.154
595.041
1023.81
1501.18
2047.48
2683.85
3432.26
4315.51
5357.02
6580.62
8010.09
9668.68
11578.5
13759.7
16230
19003.7
22090.6
25496
29219.4
33254.3
37587.3
42198.5
47061
52140.8
57397.4
62783.6
68246.4
73726.9
79161.2
84480.2
89609.9
94471.2
98979.7
103044
106566
109437
111537
112731
112871
111794
109324
105284
99505.9
91852.2
82239.9
70667.6
57240.4
42185.9
25856.4
8712.26
188.338
574.44
988.955
1451.26
1981.32
2599.86
3328.43
4189.34
5205.57
6400.44
7797.29
9418.94
11287.1
13421.8
15840.5
18557.2
21582.1
24920.6
28572.5
32531.8
36785.9
41315.7
46095.2
51091.6
56265.5
61571
66956.5
72364.5
77732.2
82991.9
88070.7
92890.8
97368.5
101414
104929
107805
109924
111152
111340
110325
107933
103985
98315.2
90784.3
81308.8
69886.2
56620
41735.9
25583.6
8620.83
178.203
543.644
936.323
1374.8
1878.2
2466.37
3159.91
3980.19
4949.16
6089.19
7422.61
8971.32
10756.2
12796.5
15109
17707.4
20601.7
23797.3
27294.3
31087.2
35164.6
39508.3
44093.8
48890.3
53860.2
58960.1
64140.6
69347
74519.2
79592.3
84496.3
89156.3
93491.8
97415.7
100833
103640
105720
106943
107166
106230
103965
100198
94765.7
87533.3
78418.5
67417.9
54631
40275.8
24691.1
8320.54
164.442
501.74
864.398
1269.7
1735.44
2280.08
2922.79
3683.46
4582.52
5640.77
6879.06
8317.79
9976.47
11873.1
14023.4
16440.4
19133.4
22107.8
25363.8
28896.8
32696.2
36745.5
41022.4
45498.1
50138.3
54902.6
59745.4
64615.7
69457.8
74211.1
78810.5
83185.7
87261.5
90956.1
94180.4
96836.3
98814.6
99993.1
100236
99393.4
97305.4
93808.5
88748.1
81996.6
73475.8
63181.6
51206.9
37756.5
23148.7
7801.13
146.976
448.498
772.828
1135.51
1552.54
2040.54
2616.73
3298.98
4105.71
5055.62
6167.48
7459.69
8949.85
10654.2
12587
14760.1
17182.1
19857.9
22787.9
25968.2
29389.4
33037.1
36891.3
40926.4
45111.7
49411.2
53783.9
58184.1
62561.6
66862.1
71026.5
74991.8
78689.6
82046
84980.3
87403.2
89215.7
90306.7
90552.5
89816.9
87954.3
84815.5
80260
74171
66476.9
57173.4
46344.2
34174.9
20954.5
7061.94
125.944
384.345
662.377
973.415
1331.23
1750.12
2244.92
2831.01
3524.23
4340.72
5296.64
6407.87
7689.59
9155.86
10819.1
12689.4
14774.4
17078.4
19602.1
22341.9
25290.3
28434.7
31758.2
35239.1
38850.8
42562.7
46339.5
50141.9
53926.9
57647.3
61252.6
64688.1
67894.6
70808.3
73359.2
75469.8
77054.1
78015.7
78247.1
77629.9
76037.3
73339.8
69414.8
64160.7
57514.7
49472.7
40107
29578.3
18137.2
6112.68
101.681
310.318
534.853
786.116
1075.26
1413.87
1813.94
2287.96
2848.76
3509.4
4283
5182.45
6220.07
7407.29
8754.18
10269.1
11958.2
13825
15870.2
18091.1
20481.6
23031.7
25727.7
28552.1
31483.7
34497.6
37565.2
40655
43731.8
46757.7
49691.5
52488.8
55101.6
57477.8
59560.3
61286.3
62585.4
63378.9
63579.3
63089.7
61806.7
59624.4
56442.6
52178.2
46779.7
40243.5
32628.1
24064.5
14757
4973.59
74.7039
227.995
392.99
577.662
790.226
1039.2
1333.43
1682.11
2094.68
2580.78
3150.07
3812.05
4575.82
5449.81
6441.47
7556.97
8800.9
10175.9
11682.6
13318.9
15080.4
16960
18947.5
21030.1
23192.2
25415.5
27679.2
29959.8
32231.6
34466.7
36634.5
38702.4
40635
42393.7
43936.3
45216.3
46181.7
46774.2
46928.9
46574.1
45633.2
44027.7
41683.3
38538.3
34554.6
29729.1
24105.2
17779.5
10903.3
3674.84
45.6751
139.403
240.295
353.234
483.248
635.552
815.567
1028.91
1281.38
1578.87
1927.31
2332.5
2800.04
3335.1
3942.24
4625.26
5386.98
6229.07
7151.84
8154.16
9233.29
10384.8
11602.7
12879
14204.3
15567.3
16955.3
18353.9
19747.5
21118.8
22449.3
23718.8
24905.6
25986.1
26934.4
27721.9
28316.6
28682.7
28780.4
28565.5
27990.9
27008.5
25572.4
23644.8
21202
18242.3
14792.1
10910.8
6691.21
2255.24
15.3692
46.9081
80.8593
118.867
162.623
213.885
274.478
346.294
431.284
531.434
648.739
785.159
942.576
1122.73
1327.16
1557.16
1813.66
2097.24
2408.01
2745.59
3109.05
3496.93
3907.17
4337.14
4783.63
5242.87
5710.56
6181.9
6651.58
7113.81
7562.33
7990.37
8390.59
8755.04
9074.99
9340.77
9541.61
9665.45
9698.81
9626.84
9433.64
9102.91
8619.25
7969.83
7146.72
6149.27
4986.4
3678.11
2255.71
760.284
-15.3703
-46.9113
-80.8647
-118.874
-162.633
-213.896
-274.49
-346.307
-431.297
-531.448
-648.754
-785.177
-942.596
-1122.75
-1327.19
-1557.19
-1813.71
-2097.3
-2408.08
-2745.67
-3109.16
-3497.06
-3907.33
-4337.32
-4783.84
-5243.11
-5710.85
-6182.23
-6651.95
-7114.22
-7562.78
-7990.85
-8391.11
-8755.6
-9075.58
-9341.4
-9542.28
-9666.15
-9699.54
-9627.6
-9434.4
-9103.67
-8619.97
-7970.48
-7147.26
-6149.65
-4986.61
-3678.19
-2255.7
-760.268
-45.6762
-139.406
-240.301
-353.241
-483.258
-635.564
-815.58
-1028.93
-1281.4
-1578.89
-1927.32
-2332.52
-2800.06
-3335.12
-3942.27
-4625.29
-5387.03
-6229.12
-7151.91
-8154.24
-9233.39
-10385
-11602.8
-12879.2
-14204.5
-15567.5
-16955.6
-18354.3
-19747.9
-21119.2
-22449.7
-23719.3
-24906.1
-25986.7
-26935
-27722.5
-28317.2
-28683.4
-28781.1
-28566.2
-27991.7
-27009.2
-25573.1
-23645.4
-21202.5
-18242.6
-14792.3
-10910.9
-6691.2
-2255.22
-74.7051
-227.999
-392.996
-577.67
-790.236
-1039.21
-1333.45
-1682.12
-2094.69
-2580.79
-3150.09
-3812.07
-4575.84
-5449.83
-6441.5
-7557.01
-8800.94
-10176
-11682.6
-13319
-15080.5
-16960.1
-18947.6
-21030.2
-23192.4
-25415.7
-27679.4
-29960.1
-32232
-34467
-36634.9
-38702.9
-40635.5
-42394.2
-43936.9
-45216.9
-46182.3
-46774.8
-46929.5
-46574.8
-45633.9
-44028.4
-41684
-38538.9
-34555
-29729.4
-24105.4
-17779.6
-10903.3
-3674.83
-101.682
-310.322
-534.859
-786.124
-1075.27
-1413.88
-1813.96
-2287.98
-2848.77
-3509.42
-4283.02
-5182.47
-6220.1
-7407.31
-8754.21
-10269.1
-11958.2
-13825.1
-15870.3
-18091.2
-20481.7
-23031.8
-25727.8
-28552.3
-31483.9
-34497.8
-37565.5
-40655.2
-43732.1
-46758.1
-49691.9
-52489.2
-55102
-57478.2
-59560.8
-61286.8
-62585.9
-63379.5
-63579.8
-63090.3
-61807.3
-59625
-56443.2
-52178.7
-46780.1
-40243.8
-32628.3
-24064.6
-14757
-4973.58
-125.945
-384.349
-662.383
-973.423
-1331.25
-1750.13
-2244.93
-2831.02
-3524.25
-4340.74
-5296.66
-6407.89
-7689.62
-9155.88
-10819.1
-12689.4
-14774.5
-17078.5
-19602.1
-22342
-25290.4
-28434.8
-31758.3
-35239.2
-38851
-42562.9
-46339.7
-50142.2
-53927.1
-57647.6
-61252.9
-64688.4
-67895
-70808.7
-73359.6
-75470.2
-77054.6
-78016.2
-78247.6
-77630.4
-76037.8
-73340.4
-69415.3
-64161.1
-57515.1
-49473
-40107.2
-29578.3
-18137.2
-6112.68
-146.978
-448.501
-772.834
-1135.52
-1552.56
-2040.55
-2616.74
-3299
-4105.73
-5055.64
-6167.5
-7459.71
-8949.87
-10654.2
-12587.1
-14760.2
-17182.2
-19857.9
-22788
-25968.2
-29389.5
-33037.2
-36891.4
-40926.5
-45111.9
-49411.4
-53784.1
-58184.3
-62561.9
-66862.3
-71026.8
-74992.1
-78689.9
-82046.3
-84980.6
-87403.6
-89216
-90307.1
-90552.9
-89817.3
-87954.7
-84816
-80260.4
-74171.3
-66477.2
-57173.6
-46344.3
-34175
-20954.5
-7061.94
-164.443
-501.744
-864.405
-1269.71
-1735.45
-2280.09
-2922.81
-3683.47
-4582.54
-5640.8
-6879.08
-8317.82
-9976.5
-11873.1
-14023.4
-16440.4
-19133.5
-22107.8
-25363.9
-28896.9
-32696.3
-36745.6
-41022.5
-45498.2
-50138.4
-54902.7
-59745.5
-64615.9
-69458
-74211.3
-78810.7
-83186
-87261.7
-90956.3
-94180.7
-96836.6
-98814.9
-99993.4
-100236
-99393.7
-97305.7
-93808.8
-88748.3
-81996.8
-73476
-63181.8
-51207
-37756.5
-23148.8
-7801.14
-178.204
-543.649
-936.33
-1374.81
-1878.22
-2466.39
-3159.93
-3980.21
-4949.18
-6089.21
-7422.63
-8971.34
-10756.2
-12796.5
-15109
-17707.4
-20601.8
-23797.3
-27294.3
-31087.3
-35164.6
-39508.3
-44093.9
-48890.4
-53860.3
-58960.2
-64140.8
-69347.1
-74519.3
-79592.4
-84496.4
-89156.5
-93492
-97415.9
-100833
-103640
-105720
-106944
-107167
-106230
-103965
-100198
-94765.9
-87533.5
-78418.6
-67418
-54631.1
-40275.9
-24691.2
-8320.55
-188.339
-574.444
-988.962
-1451.27
-1981.33
-2599.88
-3328.44
-4189.36
-5205.59
-6400.46
-7797.31
-9418.97
-11287.2
-13421.9
-15840.5
-18557.2
-21582.2
-24920.6
-28572.5
-32531.8
-36786
-41315.8
-46095.3
-51091.7
-56265.5
-61571.1
-66956.6
-72364.6
-77732.3
-82992
-88070.8
-92890.9
-97368.6
-101414
-104929
-107806
-109924
-111152
-111340
-110325
-107933
-103985
-98315.3
-90784.4
-81308.8
-69886.3
-56620.1
-41735.9
-25583.6
-8620.85
-195.155
-595.046
-1023.82
-1501.19
-2047.5
-2683.87
-3432.28
-4315.53
-5357.05
-6580.65
-8010.12
-9668.71
-11578.5
-13759.8
-16230.1
-19003.7
-22090.6
-25496.1
-29219.5
-33254.3
-37587.3
-42198.6
-47061.1
-52140.9
-57397.4
-62783.6
-68246.4
-73727
-79161.3
-84480.3
-89609.9
-94471.2
-98979.7
-103044
-106566
-109437
-111537
-112731
-112871
-111794
-109324
-105284
-99505.8
-91852.2
-82239.9
-70667.6
-57240.4
-42185.9
-25856.5
-8712.28
-199.192
-607.078
-1043.62
-1528.4
-2081.68
-2724.52
-3478.89
-4367.57
-5414.02
-6642.04
-8075.41
-9737.32
-11649.8
-13832.9
-16304
-19077.3
-22162.3
-25563.9
-29281.2
-33307.1
-37628.1
-42223.7
-47066.3
-52121.7
-57348.8
-62700.3
-68122.8
-73557.4
-78939.9
-84201.7
-89269
-94063.4
-98501.3
-102493
-105941
-108738
-110767
-111896
-111979
-110856
-108357
-104306
-98540.1
-90925.8
-81382.4
-69909.9
-56612.6
-41715.3
-25564.7
-8613.4
-201.238
-612.903
-1052.3
-1538.45
-2091.08
-2730.79
-3479.11
-4358.42
-5391.78
-6602.6
-8014.23
-9649.41
-11529.7
-13674.6
-16101.1
-18822.7
-21848.6
-25183.2
-28825.1
-32767
-36995
-41488.6
-46220.2
-51155.6
-56254.3
-61469.3
-66747.9
-72032.3
-77259.5
-82362.2
-87268.6
-91902.4
-96182.3
-100021
-103326
-105992
-107908
-108946
-108966
-107815
-105329
-101341
-95695.2
-88263.2
-78969.1
-67814.3
-54900.6
-40445.3
-24782.8
-8349.36
-202.341
-615.667
-1055.11
-1538.68
-2085.18
-2714.38
-3447.04
-4304.81
-5310.03
-6485.39
-7853.5
-9436.34
-11254.7
-13327.3
-15670.3
-18296.6
-21214.7
-24428.4
-27936
-31730.1
-35796.5
-40115.1
-44658.6
-49393.7
-54280.6
-59273.7
-64322
-69369.3
-74355.1
-79214.5
-83878.8
-88274.8
-92325.4
-95947.7
-99052.8
-101543
-103312
-104240
-104195
-103033
-100600
-96738.1
-91302
-84171.7
-75277
-64620.3
-52299.1
-38519.9
-23599.3
-7950.01
-203.85
-619.394
-1058.7
-1538.34
-2075.83
-2689.79
-3399.97
-4227.06
-5192.47
-6317.97
-7625.2
-9135.16
-10867.6
-12840.4
-15068.7
-17564.5
-20335.6
-23385.3
-26711.5
-30306.6
-34156.8
-38242.2
-42536.5
-47007.5
-51617
-56321.1
-61071.2
-65813.7
-70491.2
-75042.3
-79401.9
-83501.7
-87268.9
-90626.3
-93491
-95772.6
-97371.6
-98177.8
-98068.8
-96911.2
-94562.4
-90878.3
-85723.7
-78988.8
-70609.6
-60589.8
-49021.3
-36096.7
-22111
-7448
-207.476
-629.174
-1071.43
-1548.91
-2077.51
-2674.51
-3358.47
-4149.04
-5066.63
-6131.96
-7365.65
-8787.59
-10416.4
-12268.9
-14359.3
-16698.5
-19293.6
-22147.3
-25257.3
-28615.9
-32209.7
-36019.5
-40020.1
-44180.9
-48465.4
-52832.4
-57235.9
-61625.6
-65947.8
-70145.1
-74157.1
-77920.3
-81367.8
-84428.5
-87026.2
-89078.3
-90494.1
-91172.8
-91003.4
-89864.2
-87625.9
-84157.3
-79336
-73062.8
-65280.3
-55993.4
-45286.9
-33338.2
-20417.7
-6876.99
-215.418
-651.504
-1103.82
-1584.63
-2107.91
-2689.48
-3346.73
-4098.35
-4963.79
-5962.84
-7115.07
-8439.32
-9953.1
-11672
-13609.3
-15774.9
-18175.1
-20812.2
-23683.6
-26781.7
-30093.6
-33600.9
-37279.9
-41101.7
-45032.1
-49032.6
-53060.3
-57068.6
-61007.8
-64825.1
-68465.1
-71869.7
-74978
-77725.5
-80043.4
-81857.2
-83085.1
-83636.9
-83412.8
-82303.7
-80193.7
-76965.5
-72509.5
-66737.3
-59598.3
-51097.6
-41312.8
-30404.6
-18617.8
-6270.22
-230.593
-694.921
-1169.5
-1663.55
-2188.92
-2760.02
-3393.37
-4106.93
-4919.51
-5850.17
-6917.62
-8139.75
-9533.02
-11112
-12888.9
-14872.7
-17069.2
-19479.9
-22102.2
-24928.8
-27947.2
-31140.2
-34485.5
-37956.1
-41520.5
-45142.8
-48783.6
-52400.2
-55947
-59376.1
-62637.1
-65677.6
-68442.8
-70874.9
-72912.6
-74489.5
-75533
-75963.1
-75691.3
-74621.1
-72649.9
-69673.9
-65596.2
-60338.7
-53856.9
-46155.9
-37305.3
-27448.8
-16805.4
-5659.4
-257.071
-771.193
-1286.85
-1809.38
-2348.48
-2917.6
-3532.95
-4212.43
-4974.73
-5838.57
-6822.15
-7942.6
-9215.56
-10654.7
-12271.1
-14073.3
-16066.1
-18250.9
-20624.8
-23180.8
-25907.1
-28787.7
-31801.8
-34924.4
-38126.4
-41375.1
-44634.3
-47865.4
-51026.9
-54075.5
-56966
-59651.7
-62083.6
-64210.6
-65978.4
-67328.7
-68197.7
-68515.1
-68203.3
-67177.9
-65348.6
-62624.6
-58920.6
-54167.9
-48327.3
-41403
-33456
-24613.2
-15068.2
-5074.27
-300.964
-897.637
-1482.11
-2054.87
-2623.9
-3202.86
-3808.88
-4460.87
-5178.22
-5979.98
-6884.27
-7907.83
-9065.66
-10370.7
-11833.3
-13461.2
-15258.7
-17227
-19363.1
-21660.2
-24107.4
-26689.7
-29387.9
-32179
-35036.4
-37930.3
-40827.8
-43693.8
-46491.1
-49181
-51723
-54075.6
-56195.7
-58038.1
-59555.4
-60696.5
-61405.9
-61622.4
-61278.4
-60300.2
-58609.3
-56126.1
-52775.7
-48497.6
-43256.2
-37053.7
-29941.8
-22030.1
-13488.9
-4542.92
-372.332
-1101.9
-1795.5
-2448.1
-3067.91
-3671.29
-4278.64
-4911.56
-5591.4
-6338.33
-7170.96
-8106.02
-9158.19
-10339.9
-11660.9
-13128.3
-14746.1
-16515.1
-18432.5
-20491.7
-22682.7
-24991.4
-27400.1
-29887.8
-32430.1
-34999.9
-37567.4
-40101.1
-42567.4
-44931.7
-47158.1
-49209.7
-51048.7
-52635.4
-53928.5
-54883.4
-55452
-55581.1
-55212.1
-54280.7
-52718.5
-50455.6
-47426
-43575.1
-38869.3
-33307.2
-26929.4
-19827.6
-12148.7
-4093.48
-489.814
-1432.52
-2293.76
-3064.93
-3760.2
-4404.1
-5024.13
-5647.2
-6298.11
-6999.16
-7770.05
-8627.93
-9587.43
-10660.6
-11856.9
-13183
-14642.6
-16236.2
-17961.1
-19811.3
-21777
-23845.5
-26000.2
-28222
-30488.4
-32774.8
-35054.1
-37297.8
-39475.7
-41556.8
-43509.1
-45300
-46895.9
-48262.1
-49362.5
-50158.3
-50607.4
-50663.6
-50275.8
-49387.9
-47939.7
-45869.2
-43117.2
-39633
-35383.1
-30359.4
-24588.7
-18141.4
-11138.5
-3758.9
-693.489
-1984.4
-3097.67
-4034.82
-4831.43
-5530.76
-6173.56
-6795.29
-7426
-8091
-8811.64
-9605.81
-10488.3
-11471.2
-12563.5
-13771.8
-15099.3
-16546.7
-18111.2
-19787.1
-21565.4
-23433.9
-25377.5
-27378.3
-29415.7
-31466.9
-33507.5
-35511.1
-37450.6
-39297.9
-41024.3
-42600.6
-43996.8
-45182.4
-46125.4
-46791.6
-47144.2
-47142.4
-46741.3
-45891
-44538
-42626.4
-40101.4
-36914.7
-33029.7
-28428.9
-23120.4
-17144.8
-10585.4
-3590.03
-1086.9
-2965.64
-4446.71
-5599.38
-6517.64
-7281.57
-7953.15
-8579.75
-9198
-9836.88
-10519.6
-11265
-12088.3
-13001.4
-14013.4
-15130.5
-16356
-17690.3
-19130.8
-20672.1
-22305.6
-24019.9
-25800.6
-27631.1
-29492
-31362.4
-33219.2
-35038.4
-36794.9
-38462.9
-40016.2
-41428.3
-42672.1
-43720
-44543.3
-45111.4
-45391.2
-45346.3
-44936.1
-44115.8
-42836.3
-41046.1
-38693.3
-35729.5
-32113.6
-27815.4
-22817.3
-17114.9
-10720.5
-3698.16
-1999.51
-4887.31
-6863.55
-8260.09
-9301.14
-10126.4
-10825.6
-11459.4
-12071.2
-12693.4
-13350.8
-14063.4
-14846.4
-15712.1
-16669.5
-17724.6
-18880.6
-20137.9
-21494.2
-22943.9
-24479
-26088.4
-27758.5
-29473.2
-31214.4
-32962
-34694.3
-36388.6
-38021.1
-39567.8
-41004.2
-42305.4
-43446.4
-44401.5
-45144.3
-45646.6
-45877.8
-45804.4
-45388.8
-44589.1
-43359.5
-41651.1
-39413.3
-36596.8
-33155.2
-29044.1
-24215.6
-18599.7
-12070.3
-4417.99
-4717.3
-9130.04
-11610.4
-13201.8
-14327.9
-15192.6
-15909.2
-16548.2
-17157.4
-17771.4
-18416.3
-19112.3
-19875.1
-20716.8
-21646.5
-22670.2
-23791.1
-25009.5
-26323.1
-27726.5
-29211.8
-30768.1
-32382.3
-34038.6
-35719.3
-37404.9
-39074.3
-40705.5
-42275.6
-43761.1
-45138.5
-46383.9
-47473.1
-48381.7
-49084.1
-49553.3
-49760.3
-49672.6
-49254.4
-48465.3
-47261
-45593.6
-43413.2
-40669.6
-37312.4
-33287.4
-28521.2
-22877
-16024.9
-7038.64
1999.43
4886.04
6859.48
8251.43
9285.96
10102.6
10790.8
11410.9
12006
12608.1
13241.9
13926.5
14677.2
15505.7
16420.8
17428.1
18530.8
19729.1
21020.5
22399.8
23859
25387.2
26971.5
28596.3
30243.9
31895.2
33529.5
35124.9
36659
38108.8
39451.1
40662.7
41719.9
42598.9
43274.9
43721.9
43911.4
43812.5
43390.3
42606.1
41417.2
39778
37641.1
34959.6
31688.5
27783.7
23195
17848
11610.1
4263.14
1324.05
3529.81
5195.78
6445.49
7411.28
8194.35
8867.47
9483.37
10081.4
10691.6
11337.8
12038.8
12809.5
13661.6
14603.8
15642
16779.2
18015.7
19349
20773.8
22281.7
23862
25501
27183
28889.9
30601.8
32297.5
33954.4
35549.5
37058.9
38458.6
39724.4
40831.8
41755.9
42471
42949.6
43162.4
43076.8
42656.6
41861.5
40647.5
38967.6
36774
34020.4
30665
26671.6
22008
16641.2
10534.2
3682.25
878.202
2468.22
3781.1
4838.51
5701.31
6431.13
7080.13
7690.34
8295.39
8922.46
9593.66
10327.1
11137.3
12036
13032
14131.1
15336.5
16648.6
18064.7
19579.3
21183.7
22866.8
24614.2
26409.4
28233.5
30065.4
31882.7
33661.7
35377.6
37005.1
38518.7
39892.2
41099.3
42113.3
42906
43448
43707.1
43648.3
43232.4
42416
41152.2
39391.4
37084.4
34185.4
30657.1
26474.6
21629.4
16133.2
10028.8
3423.93
613.652
1773.81
2796.26
3673.81
4431.38
5104.29
5728.14
6335.12
6953.22
7606.41
8315.12
9096.6
9965.18
10932.5
12007.4
13196.1
14501.8
15924.9
17462.6
19109.2
20855.6
22689.8
24596.8
26558.8
28555.4
30564.3
32561
34520
36414.4
38216.6
39898.5
41431.5
42786.5
43933.8
44842.1
45478.4
45807.1
45788.8
45380.1
44533
43195.8
41315
38838.4
35719.9
31926.1
27442.6
22281.7
16489.8
10157.5
3436.83
453.228
1330.57
2140.66
2874.18
3542.1
4165.69
4769.87
5379.61
6018.36
6707.45
7465.82
8310.08
9254.42
10310.6
11487.7
12792.1
14227.5
15794.2
17489.3
19306.8
21237.1
23267.2
25381
27559.3
29780
32018.6
34248.7
36441.9
38568.7
40598.6
42500.3
44241.9
45790.5
47112.7
48173
48933.9
49354.8
49391.1
48993.3
48107.4
46675.3
44637.6
41937.5
38527
34374.5
29474
23854
17585.5
10788.9
3638.71
353.012
1046.46
1709.43
2337.36
2937.55
3525.03
4118.85
4739.5
5407.39
6141.99
6961.31
7881.6
8917.13
10079.9
11379.6
12822.9
14413.7
16152.5
18036.5
20059.2
22210.2
24475.7
26838.2
29276.8
31767.3
34283
36794.6
39270.8
41678.8
43984.5
46152.8
48147.7
49932.1
51467.6
52714
53628.1
54163.2
54268.1
53886.1
52955.2
51409.6
49182
46209
42438.7
37839.4
32410.9
26193.9
19278.6
11808.5
3978.07
289.533
864.276
1429.05
1984.74
2539.07
3105.06
3699.13
4339.47
5044.83
5833.7
6723.69
7731.11
8870.58
10154.7
11593.5
13194.4
14961.7
16896.1
18994.7
21250.6
23652.9
26186.5
28832.5
31568
34366.8
37199.1
40032.9
42833.4
45564.1
48186.9
50662.2
52949.4
55006.5
56789.5
58252.3
59345.6
60015.4
60202.7
59842.2
58862.9
57189
54743.9
51455.9
47267
42143.5
36088.6
29153.4
21444.7
13128
4420.93
249.599
749.134
1251.09
1761
2288.4
2846.4
3450.74
4118.82
4868.83
5719.02
6687.14
7789.94
9042.63
10458.5
12048.5
13820.6
15779.6
17926.6
20258.5
22768.3
25444.1
28270
31225.3
34285.2
37420.9
40600.1
43787.1
46943.7
50029.3
53001.4
55815.7
58426.4
60785.9
62844.4
64549.1
65843.6
66666.1
66948.7
66616.5
65587.9
63776.1
61093.5
57458.3
52804.8
47095.6
40335.9
32585.5
23967.9
14671.1
4940.17
225.227
678.94
1143.18
1627.17
2142.62
2703.67
3326.46
4028.56
4828.35
5744.46
6795.19
7998.01
9369.02
10922.4
12670
14620.6
16779.5
19148.2
21723.8
24498.9
27461
30592.9
33872.5
37272.9
40762.8
44307.1
47866.6
51399.3
54860.5
58202.9
61377.5
64332.8
67015.4
69369.2
71334.6
72847.1
73836.7
74225.9
73929.3
72853.7
70900.4
67969.4
63967.4
58819.9
52484.4
44967
36335.7
26730.4
16363.4
5510.21
211.207
638.871
1082.73
1554.94
2069.29
2641.33
3288.14
4028.01
4880.02
5863.54
6997.73
8301
9790.48
11481.4
13386.5
15515.6
17874.5
20465.4
23285.3
26326.6
29576.2
33016
36622.3
40366.2
44214
48127.7
52064.9
55979.7
59823.2
63543.5
67086.5
70395.4
73410.7
76069.8
78305.7
80046.3
81212.4
81716.9
81463.3
80346.5
78254.6
75074.9
70701.9
65050.9
58073.8
49776.7
40235.5
29606.3
18126.7
6104.45
203.902
618.389
1053.22
1522.89
2043.07
2630.74
3304.14
4082.56
4986
6034.81
7249.14
8648.49
10251.1
12073.2
14128.7
16428.2
18978.4
21781.7
24835.7
28132.3
31658.2
35394.2
39315.2
43390.6
47584.6
51856.3
56160.2
60447
64663.5
68753.7
72658.3
76315.4
79659.5
82621.6
85127.8
87097.8
88443.9
89068.9
88865.3
87715.8
85495.8
82079
77347.7
71206.8
63601.9
54538.5
44100
32458.5
19876.5
6694.3
200.624
609.617
1042.06
1514.29
2043.56
2648.2
3347.59
4162.07
5112.65
6220.68
7507.35
8993.24
10697.6
12637.9
14828.9
17282.1
20005
23000.6
26266.5
29794.9
33572
37577.7
41786.1
46164.9
50676.4
55277.3
59919.4
64550
69112.7
73547.1
77789.6
81773.3
85427.4
88676.7
91440.6
93631.7
95153.5
95899.5
95751.7
94581.2
92250.7
88621.4
83563.2
76971
68784
59006.8
47729.4
35139
21521.8
7249.07
199.305
606.435
1039.31
1515.66
2054.01
2673.79
3395.41
4240.16
5229.94
6387.03
7733.56
9291.06
11079.8
13118.1
15421.8
18003
20870.1
24026.5
27470.2
31193.5
35182.3
39416.3
43868.4
48505.4
53287.9
58170.8
63103.8
68031.4
72894.3
77628.6
82167.1
86438.4
90367.1
93872.7
96868.8
99261.1
100946
101808
101720
100542
98126.8
94322.4
88988.3
82009.8
73320.1
62922.9
50913.5
37492.5
22967.1
7736.54
198.311
603.986
1036.98
1516.01
2060.5
2690.71
3427.8
4293.77
5311.25
6503.19
7892.49
9501.39
11350.9
13460.3
15845.8
18520.5
21493.3
24768.1
28343.4
32211.5
36358.4
40763.5
45399.4
50232.1
55221.4
60320.8
65478.3
70636.8
75734.6
80705.5
85479.2
89981
94131.9
97847.3
101036
103598
105423
106390
106364
105195
102727
98797.5
93257.8
85984.6
76905.8
66024
53438.7
39361.1
24115.5
8124.05
196.345
598.392
1028.65
1506.41
2051.59
2684.92
3427.98
4303.17
5333.5
6542.32
7952.94
9588.06
11469.2
13615.9
16045.1
18770.4
21801.1
25141.5
28790.4
32740.7
36978.4
41483.2
46227.4
51177.2
56291.7
61524.1
66821.6
72126.3
77375.1
82500.4
87430.2
92087.9
96391.8
100255
103582
106270
108205
109259
109292
108150
105667
101675
96018.4
88567.5
79246.2
68055.6
55098.1
40591.9
24873.2
8379.9
192.391
586.605
1009.25
1479.74
2018.07
2645.03
3382.22
4252.03
5277.47
6481.89
7888.61
9520.37
11398.8
13543.5
15971.8
18697.3
21729.7
25073.6
28728.3
32687
36936.3
41456
46219.4
51192.6
56335.4
61601.3
66937.8
72286.9
77585.7
82766.3
87756.4
92478.7
96850.9
100784
104183
106942
108945
110063
110151
109052
106598
102617
96948.5
89459.7
80072
68785.4
55702.7
41045.1
25154.2
8475.11
185.683
566.328
974.941
1430.59
1952.92
2562.31
3279.94
4127.73
5128.23
6304.33
7678.88
9274.23
11111.6
13210.5
15587.8
18257.3
21228.6
24506.6
28090.9
31975.2
36146.8
40586.4
45268.2
50159.4
55220.9
60407.6
65668.1
70946
76179.5
81302
86242.3
90924.3
95266.4
99181.1
102573
105338
107360
108511
108646
107609
105231
101342
95778.8
88410.7
79157.4
68017.8
55093.3
40603.1
24886.1
8385.3
175.694
535.979
923.071
1355.24
1851.29
2430.75
3113.86
3921.61
4875.56
5997.62
7309.7
8833.23
10588.6
12594.5
14867.4
17420.5
20263.4
23400.9
26833
30553.9
34551.9
38808.9
43300.4
47995.5
52857.3
57842.5
62902.6
67983.3
73025.8
77966.3
82736.2
87262.5
91466.6
95263.7
98561.9
101260
103246
104394
104565
103606
101354
97642.1
92312.8
85237.1
76336.7
65609.6
53153.1
39179.1
24015.8
8092.47
162.128
494.665
852.163
1251.62
1710.56
2247.12
2880.15
3629.18
4514.26
5555.82
6774.24
8189.53
9820.72
11685.3
13798.7
16173.5
18818.5
21738.7
24934.2
28399.9
32125.1
36093.4
40282.3
44663.3
49202.2
53859.1
58589
63341.5
68061.9
72690.7
77164.1
81413.6
85365.6
88940.8
92052.7
94606
96495.2
97602.1
97795.6
96931.3
94854.7
91408.5
86444.2
79839.4
71519.6
61482.1
49817.7
36725.4
22513.8
7586.69
144.907
442.17
761.882
1119.33
1530.27
2011.01
2578.5
3250.31
4044.47
4979.36
6073.35
7344.46
8809.87
10485.4
12385
14520.1
16898.8
19525.7
22401.1
25520.7
28875
32449.5
36224.2
40173.8
44267.6
48469.9
52740.4
57034
61301.3
65488.8
69539.1
73390.2
76975.7
80223.6
83055.5
85385.1
87116.2
88141.8
88342.3
87586.4
85733.5
82640.2
78171.3
72214.9
64702.7
55631.7
45083.8
33239.4
20378.3
6867.35
124.169
378.918
652.987
959.535
1312.11
1724.77
2212.09
2789.18
3471.6
4275.15
5215.69
6308.74
7569.15
9010.6
10645.1
12482.7
14530.4
16792.2
19268.7
21956.2
24846.8
27928.1
31182.9
34589.8
38122.4
41750.3
45438.7
49148.8
52838.3
56461
59967.2
63303.7
66412.8
69232.2
71694.1
73723.5
75237
76141.6
76333.3
75698
74113.5
71455
67604.7
62465.1
55976.6
48136
39014.1
28766.9
17637.5
5943.91
100.247
305.933
527.265
774.897
1059.81
1393.37
1787.39
2254.12
2806.16
3456.33
4217.47
5102.18
6122.52
7289.62
8613.27
10101.6
11760.4
13593
15600
17778.4
20121.9
22620.7
25260.9
28025.3
30892.5