/*--------------------------------*- C++ -*----------------------------------*\
| =========                 |                                                 |
| \\      /  F ield         | OpenFOAM: The Open Source CFD Toolbox           |
|  \\    /   O peration     | Version:  5.x                                   |
|   \\  /    A nd           | Web:      www.OpenFOAM.org                      |
|    \\/     M anipulation  |                                                 |
\*---------------------------------------------------------------------------*/
FoamFile
{
    version     2.0;
    format      ascii;
    class       volScalarField;
    location    "0.2";
    object      gradTx;
}
// * * * * * * * * * * * * * * * * * * * * * * * * * * * * * * * * * * * * * //

dimensions      [0 -1 0 1 0 0 0];

internalField   nonuniform List<scalar> 
25000
(
4717.69
2001.48
1092.1
703.776
507.293
399.436
340.515
312.31
305.191
313.458
333.402
362.383
398.36
439.622
484.636
531.958
580.172
627.874
673.661
716.142
753.954
785.793
810.44
826.791
833.884
830.915
817.252
792.433
756.147
708.206
648.496
576.913
493.286
397.282
288.316
165.466
27.4205
-127.514
-301.327
-496.113
-713.791
-955.79
-1222.89
-1515.54
-1835.45
-2190.32
-2607.32
-3176.4
-4214.42
-6997.58
9129.66
4891.65
2979.7
2013.74
1483.48
1181.83
1015.06
935.926
918.088
945.494
1007.49
1096.39
1206.2
1331.84
1468.75
1612.6
1759.14
1904.14
2043.36
2172.59
2287.71
2384.77
2460.07
2510.27
2532.43
2524.11
2483.39
2408.83
2299.49
2154.76
1974.28
1757.72
1504.52
1213.66
883.334
510.734
91.8749
-378.375
-906.019
-1497.33
-2157.98
-2891.98
-3701.06
-4585.31
-5546.91
-6601.01
-7803.16
-9319.95
-11624
-16066
11604.5
6865.53
4464.9
3141.37
2373.64
1923.94
1673.54
1557.91
1539.11
1593.09
1703.42
1857.98
2047.16
2262.7
2497.06
2743.05
2993.57
3241.49
3479.66
3700.96
3898.42
4065.31
4195.34
4282.81
4322.69
4310.81
4243.83
4119.28
3935.46
3691.28
3386.05
3019.12
2589.47
2095.26
1533.38
898.965
185.208
-616.62
-1516.65
-2525.33
-3651.83
-4902.04
-6277.15
-7773.74
-9388.26
-11129.9
-13051.8
-15321.8
-18396.2
-23485.9
13182.2
8251.47
5613.46
4084.69
3165.68
2617.36
2313.25
2180.78
2175.23
2267.11
2435.64
2665.07
2942.58
3256.97
3597.86
3955.19
4318.95
4679.03
5025.24
5347.4
5635.47
5879.8
6071.3
6201.71
6263.75
6251.31
6159.48
5984.58
5724.02
5376.12
4939.68
4413.61
3796.27
3084.85
2274.67
1358.63
326.789
-833.44
-2136.53
-3597.18
-5227.71
-7035.02
-9017.69
-11165.1
-13461.1
-15897.3
-18503.7
-21416.9
-25040.7
-30484.7
14282.4
9269.72
6515.33
4875.15
3869.59
3266.09
2938.09
2810.35
2834.83
2978.74
3218.23
3534.68
3912.54
4337.91
4797.65
5278.85
5768.5
6253.39
6720.09
7155.15
7545.24
7877.49
8139.78
8321.01
8411.4
8402.64
8288.04
8062.49
7722.31
7264.99
6688.69
5991.63
5171.37
4223.85
3142.56
1917.76
536.025
-1019.52
-2768.04
-4728.61
-6916.52
-9338.65
-11988.9
-14845.6
-17874.1
-21039.3
-24336
-27856.8
-31951.1
-37661.4
15104.6
10055.4
7245.89
5551.14
4504.85
3881.3
3556.36
3454.77
3527.2
3739.06
4064.41
4482.45
4975.27
5526.48
6120.28
6740.87
7372.14
7997.58
8600.32
9163.32
9669.69
10103
10447.9
10689.9
10816.6
10817
10682.5
10406.2
9983.09
9409.57
8682.89
7800.38
6758.45
5551.5
4170.8
2603.49
832.138
-1164.97
-3412.21
-5933.34
-8746.46
-11857.6
-15253.9
-18899.2
-22734.9
-26691.8
-30721.8
-34867.2
-39423.3
-45382.2
15756.7
10692.9
7861.54
6147.56
5092.79
4476.82
4178.36
4123.12
4261.6
4558.3
4985.92
5521.92
6146.38
6840.58
7586.07
8364.11
9155.35
9939.76
10696.7
11405.4
12044.9
12594.9
13036.2
13351
13523.5
13540
13389.3
13062.5
12553
11855.7
10966.8
9882.26
8597.08
7103.66
5390.57
3441.3
1233.71
-1259.45
-4068.44
-7222.19
-10741.6
-14631.2
-18869.4
-23402.3
-28142.1
-32979.3
-37815.7
-42637.7
-47685.2
-53903.6
16303.2
11236.6
8403.12
6692.94
5652.84
5066.27
4814.37
4824.11
5046.32
5445.11
5992.26
6663.84
7438.11
8294.12
9210.79
10166.3
11138
12101.9
13033.5
13907.7
14699.2
15383.6
15937.2
16338.5
16567.8
16608.4
16446.1
16069.6
15470.3
14641.5
13577.6
12273.1
10721
8911.26
6829.23
4454.02
1758.02
-1292.45
-4734.33
-8602.39
-12920.6
-17691.2
-22882.4
-28418.8
-34178.9
-40006.3
-45745.4
-51320.2
-56910.6
-63414
16784.9
11722.7
8899.74
7209.19
6201
5661.3
5473.2
5564.9
5887.74
6405.72
7089.96
7915.34
8858.45
9896.16
11004.7
12159.1
13332.9
14498.5
15626.6
16687.7
17651.8
18489.6
19172.9
19675.7
19974.2
20048
19879.6
19455
18763.1
17794.9
16543
14999.9
13156
10998.5
8508.7
5660.55
2420.09
-1253.74
-5405.61
-10076.9
-15294.9
-21059.3
-27326.1
-33995.6
-40907.1
-47850.7
-54605.7
-61025.6
-67224.2
-74046.1
17228.7
12175.5
9371.75
7712.35
6749.31
6270.72
6161.27
6350.26
6789.56
7443.22
8281.84
9279.24
10410.4
11650
12971.5
14346.6
15745.2
17135
18482.4
19752.6
20910.7
21921.9
22753.2
23373.4
23754.5
23871.5
23703.5
23233.1
22446.3
21331.6
19879.1
18078.8
15918.3
13381.1
10443.8
7074.44
3231.66
-1134.09
-6076.26
-11643.7
-17867.8
-24744.9
-32217.6
-40158.2
-48361.8
-56558
-64452.6
-71820.3
-78700.1
-85878.8
17651.8
12611.1
9832.85
8213.28
7305.85
6900.12
6882.07
7181.96
7752.23
8557
9566.43
10753.4
12091.2
13552.3
15107.5
16724.9
18370.3
20007
21596.1
23097.7
24471
25676
26673.7
27427.9
27905.2
28076.2
27915.7
27402.6
26519.6
25252.3
23587.7
21512.8
19011.9
16064
12640.4
8702.3
4199.89
-926.013
-6738.82
-13296
-20633.2
-28743.5
-37554.3
-46906.9
-56547
-66136.3
-75298.8
-83720.8
-91358.6
-98934.1
18065.3
13039.4
10291.5
8718.43
7874.92
7551.68
7635.8
8058.41
8772.48
9742.24
10937.5
12330
13891.7
15592.8
17401
19280.9
21194
23098.7
24951
26705.1
28314.3
29732.4
30914.6
31818.7
32406
32642
32496.8
31945
30965.7
29540.9
27654.4
25289.5
22426.5
19039.6
15093.7
10542.3
5326.2
-624.674
-7384.83
-15021.3
-23574.7
-33034.8
-43312.2
-54214
-65431.3
-76551.6
-87108
-96689.6
-105161
-113173
18475.1
13465.9
10751.8
9230.4
8457.3
8224.25
8419.33
8974.46
9843.13
10989.7
12383.6
13995.8
15796.4
17753.4
19831.6
21991.8
24191.1
26382.9
28517.4
30543
32406.6
34055.7
35439.1
36508.3
37218.7
37530.4
37408.3
36822.7
35748.2
34163
32047.1
29379.7
26136.6
22286.2
17786.8
12582.9
6605.05
-228.778
-8005.38
-16802.3
-26666
-37582.2
-49443.9
-62021.2
-74946.1
-87724.7
-99792
-110631
-120007
-128493
18883.3
13892.2
11214.5
9748.5
9050.61
8913.53
9226.22
9921.39
10953.1
12285.7
13888.4
15731.2
17782.7
20008.5
22370.3
24825.3
27325.8
29820.1
32252.7
34565.6
36699.3
38594.4
40193.3
41440.8
42286.1
42683.4
42592.4
41978.2
40811
39064.6
36714.8
33736.2
30099.5
25767
20689.4
14801.7
8023.1
258.642
-8591.73
-18617.1
-29869.9
-42332.5
-55878.6
-70239.1
-84982.9
-99529.5
-113208
-125389
-135731
-144723
19289.2
14317
11677.3
10269.2
9649.63
9612.27
10047
10887.1
12087.3
13612.2
15430.4
17511.2
19821.6
22324.9
24979.7
27739.3
30551.6
33359.3
36101.3
38712.9
41128.2
43280.9
45106.2
46542.5
47532.4
48024
47971.4
47334.3
46078.2
44172.1
41587.3
38293.4
34255.6
29429.6
23757.7
17165.1
9558.55
829.624
-9135.92
-20439.3
-33139.9
-47216.1
-62522
-78747.4
-95395
-111793
-127161
-140749
-152103
-161625
19689.6
14736.6
12135.8
10786.5
10246.7
10310.7
10869.3
11856.5
13227.5
14947.1
16983.7
19305.5
21878.2
24662.8
27614.7
30683.5
33812.4
36939
39996
42912.5
45615.8
48032.6
50091.3
51723.3
52864.7
53457.4
53449.4
52795.3
51455.3
49393.7
46576.5
42968.6
38528.9
33206.4
26934.6
19628.1
11181.1
1470.97
-9631.33
-22239.7
-36420.6
-52148.9
-69258.5
-87396.8
-105999
-124299
-141403
-156437
-168833
-178901
20079.4
15145.6
12583.5
11292.8
10832.3
10997.1
11678.6
12811.9
14352.4
16265.2
18518.5
21079.6
23912.6
26976.4
30223.6
33599.9
37043.9
40488.2
43859.5
47080.8
50072.5
52754.6
55048.5
56878.8
58175.2
58873
58914.7
58249.2
56831.4
54620.8
51578.3
47663.2
42828.7
37016.2
30150.5
22135.5
12852.6
2164.3
-10073.1
-23986.6
-39649.8
-57034.3
-75953.7
-96013.3
-116580
-136793
-155643
-172133
-185577
-196194
20452.4
15537.2
13012.6
11778.9
11395.3
11657.8
12458.8
13733.7
15438.6
17538.8
20002.2
22795.4
25881.1
29216.1
32750.1
36425.1
40175.8
43929.3
47607.1
51125.9
54399.7
57341.9
59867.2
61893.6
63344.2
64148.4
64242.9
63571
62082.7
59732.1
56475.4
52266.4
47052
40766.6
33326.1
24623.6
14527.6
2886.54
-10458.4
-25647
-42760.2
-61766.3
-82459.5
-104403
-126897
-148988
-169553
-187474
-201948
-213105
20801.3
15903.8
13414.6
12234.7
11923.9
12278.8
13192.4
14601.1
16461.4
18738.7
21400.6
24413.2
27737.8
31329.2
35134.6
39092.6
43133.8
47180.7
51149.5
54951.1
58493.5
61683.9
64430.5
66645.2
68245
69153.5
69301.6
68627.8
67076.7
64597.8
61142.3
56658.7
51088.1
44357.6
36374.7
27022.1
16156
3610.86
-10786.3
-27187.9
-45681.9
-66233.6
-88618.5
-112361
-136695
-160580
-182785
-202073
-217532
-229206
21118.5
16237.2
13780.6
12649.9
12405.7
12845.2
13862.1
15393.4
17395.9
19835.4
22679.2
25892.8
29436.4
33263
37317.4
41535.2
45843.2
50159.8
54396.2
58458.3
62248.5
65668.1
68619.7
71009.5
72748.7
73755.6
73956
73283.5
71678.1
69084.8
65450
60717.4
54822.4
47685.6
39206.4
29257.8
17684.5
4307.94
-11058.1
-28577.6
-48345.2
-70323.7
-94271.3
-119676
-145712
-171257
-194979
-215532
-231903
-244055
21396.7
16529.6
14101.6
13014.4
12828.9
13342.9
14450.9
16090.1
18218.1
20800.4
23804.7
27195.5
30932.3
34966.4
39240.5
43687.7
48231.5
52786.5
57259.8
61552.6
65562.5
69185.7
72319.8
74865.6
76729.8
77825.6
78074.5
77405.5
75754.7
73062.7
69272
64321.8
58142.3
50648.3
41731.9
31257.5
19059.5
4947.67
-11276.1
-29786.2
-50683.3
-73927.9
-99263.1
-126144
-153693
-180713
-205783
-227462
-244645
-257222
21628.8
16773.6
14369.6
13318.8
13182.4
13758.9
14943
16672.7
18905.7
21607.8
24746.4
28285.8
32184.4
36392.4
40850.9
45490.5
50232.2
54987.4
59659.7
64146.5
68341.2
72136
75424.1
78102.1
80072.3
81244.2
81535.2
80870.8
79183.5
76410.5
72490.7
67359.4
60942.7
53150.1
43867.8
32952.7
20230.4
5500.94
-11443.9
-30787.3
-52635.3
-76946.2
-103451
-131576
-160400
-188665
-214873
-237502
-255369
-268305
21808.7
16962.8
14577.4
13554.9
13456.7
14081.6
15325
17124.9
19439.5
22234.7
25477.7
29132.6
33157.1
37500.5
42102.3
46891.7
51787.4
56698.6
61525.9
66164
70503
74431.8
77840.2
80621.7
82675.2
83907.2
84231.9
83572.1
81857.4
79022.4
75003.1
69731.8
63131.3
55107.1
45540.5
34282.5
21152.1
5941.57
-11565.3
-31558.7
-54148.6
-79291.9
-106709
-135807
-165627
-194865
-221962
-245334
-263736
-276953
21931.5
17091.9
14719.3
13716
13644
14302.1
15585.9
17433.9
19804.3
22663.2
25977.6
29711.5
33822.1
38258.1
42958.1
47850
52851.2
57869.1
62802.7
67544.4
71982.3
76003.1
79494.2
82346.8
84457.8
85731.2
86079.5
85423.3
83690.4
80813.4
76726.5
71359.9
64633.9
56451.5
46690.5
35198
21788.2
6248.12
-11644
-32083
-55181.7
-80896.1
-108940
-138704
-169209
-199114
-226823
-250704
-269474
-282883
21993.8
17157.4
14791.3
13797.8
13739
14413.9
15718.3
17590.7
19989.5
22880.6
26231.4
30005.4
34159.7
38642.7
43392.5
48336.5
53391.3
58463.4
63451
68245.4
72733.7
76801.2
80334.4
83223.3
85363.5
86658.2
87018.6
86364.3
84622.3
81724.2
77603.1
72188.2
65398.6
57135.9
47276.2
35664.7
22112.9
6405.34
-11682.6
-32348.2
-55705.6
-81710.5
-110073
-140177
-171030
-201274
-229294
-253434
-272392
-285899
21993.8
17157.4
14791.3
13797.8
13739
14413.9
15718.3
17590.7
19989.5
22880.6
26231.4
30005.4
34159.7
38642.7
43392.5
48336.5
53391.2
58463.4
63451
68245.4
72733.6
76801.2
80334.4
83223.3
85363.5
86658.1
87018.5
86364.3
84622.3
81724.2
77603
72188.2
65398.6
57135.9
47276.2
35664.7
22112.9
6405.32
-11682.6
-32348.2
-55705.6
-81710.5
-110073
-140177
-171030
-201274
-229294
-253434
-272392
-285899
21931.5
17091.9
14719.3
13716
13644
14302.1
15585.9
17433.9
19804.3
22663.2
25977.6
29711.5
33822.1
38258.1
42958.1
47850
52851.1
57869.1
62802.6
67544.3
71982.3
76003
79494.1
82346.8
84457.7
85731.1
86079.4
85423.2
83690.3
80813.4
76726.4
71359.8
64633.9
56451.4
46690.4
35198
21788.2
6248.07
-11644
-32083
-55181.7
-80896
-108940
-138704
-169209
-199114
-226822
-250704
-269474
-282883
21808.7
16962.8
14577.4
13554.8
13456.6
14081.6
15325
17124.9
19439.5
22234.7
25477.7
29132.6
33157.1
37500.5
42102.3
46891.7
51787.4
56698.5
61525.9
66163.9
70502.9
74431.7
77840.2
80621.6
82675.2
83907.1
84231.8
83572
81857.3
79022.3
75003
69731.8
63131.2
55107
45540.4
34282.5
21152
5941.5
-11565.4
-31558.8
-54148.6
-79291.9
-106709
-135806
-165627
-194864
-221962
-245333
-263736
-276953
21628.8
16773.6
14369.6
13318.8
13182.4
13758.9
14943
16672.7
18905.6
21607.8
24746.4
28285.8
32184.4
36392.4
40850.9
45490.5
50232.2
54987.4
59659.6
64146.4
68341.2
72136
75424
78102
80072.2
81244.1
81535.1
80870.7
79183.4
76410.4
72490.6
67359.3
60942.6
53150
43867.7
32952.6
20230.3
5500.83
-11444
-30787.4
-52635.3
-76946.1
-103450
-131575
-160399
-188664
-214873
-237501
-255369
-268305
21396.7
16529.6
14101.6
13014.4
12828.9
13342.9
14450.9
16090.1
18218.1
20800.4
23804.7
27195.5
30932.3
34966.4
39240.5
43687.7
48231.5
52786.5
57259.7
61552.5
65562.4
69185.6
72319.7
74865.5
76729.6
77825.5
78074.3
77405.3
75754.5
73062.6
69271.9
64321.6
58142.2
50648.1
41731.8
31257.4
19059.3
4947.54
-11276.2
-29786.2
-50683.3
-73927.8
-99262.8
-126143
-153692
-180712
-205783
-227462
-244645
-257222
21118.5
16237.2
13780.6
12649.9
12405.7
12845.2
13862.1
15393.4
17395.9
19835.4
22679.2
25892.8
29436.4
33263
37317.3
41535.1
45843.1
50159.7
54396.1
58458.2
62248.4
65668
68619.6
71009.3
72748.5
73755.4
73955.8
73283.3
71677.9
69084.6
65449.8
60717.2
54822.2
47685.4
39206.2
29257.6
17684.3
4307.8
-11058.2
-28577.6
-48345.2
-70323.6
-94271.1
-119675
-145711
-171256
-194978
-215532
-231903
-244055
20801.2
15903.7
13414.6
12234.7
11923.9
12278.8
13192.4
14601.1
16461.4
18738.7
21400.6
24413.2
27737.7
31329.2
35134.5
39092.6
43133.8
47180.7
51149.4
54951
58493.4
61683.7
64430.3
66645
68244.8
69153.3
69301.4
68627.6
67076.5
64597.6
61142.1
56658.6
51087.9
44357.4
36374.5
27021.9
16155.9
3610.7
-10786.5
-27188
-45681.9
-66233.5
-88618.2
-112360
-136694
-160579
-182784
-202072
-217532
-229206
20452.3
15537.2
13012.6
11778.9
11395.3
11657.8
12458.7
13733.6
15438.6
17538.8
20002.2
22795.4
25881.1
29216
32750
36425.1
40175.7
43929.3
47607.1
51125.8
54399.6
57341.8
59867
61893.4
63344
64148.2
64242.7
63570.8
62082.5
59731.9
56475.2
52266.2
47051.8
40766.4
33325.9
24623.4
14527.5
2886.38
-10458.5
-25647.1
-42760.2
-61766.2
-82459.2
-104403
-126896
-148987
-169553
-187473
-201948
-213105
20079.4
15145.6
12583.5
11292.8
10832.3
10997
11678.6
12811.9
14352.4
16265.2
18518.5
21079.6
23912.6
26976.4
30223.6
33599.8
37043.9
40488.1
43859.4
47080.7
50072.4
52754.4
55048.3
56878.6
58175
58872.8
58914.5
58249
56831.2
54620.5
51578
47663
42828.5
37016
30150.3
22135.3
12852.4
2164.14
-10073.2
-23986.7
-39649.8
-57034.1
-75953.4
-96012.9
-116579
-136792
-155642
-172132
-185577
-196194
19689.6
14736.6
12135.8
10786.5
10246.7
10310.7
10869.3
11856.5
13227.5
14947.1
16983.7
19305.5
21878.2
24662.7
27614.7
30683.4
33812.3
36938.9
39995.9
42912.4
45615.7
48032.5
50091.1
51723.1
52864.5
53457.2
53449.2
52795.1
51455.1
49393.4
46576.3
42968.4
38528.7
33206.2
26934.4
19627.9
11181
1470.81
-9631.46
-22239.8
-36420.6
-52148.7
-69258.2
-87396.4
-105998
-124298
-141402
-156437
-168833
-178901
19289.2
14317
11677.3
10269.1
9649.61
9612.25
10046.9
10887.1
12087.3
13612.1
15430.4
17511.2
19821.5
22324.9
24979.7
27739.3
30551.5
33359.3
36101.2
38712.8
41128.1
43280.7
45106
46542.3
47532.2
48023.8
47971.1
47334.1
46078
44171.9
41587.1
38293.2
34255.4
29429.4
23757.5
17164.9
9558.4
829.484
-9136.03
-20439.4
-33139.9
-47215.9
-62521.7
-78746.9
-95394.3
-111792
-127160
-140748
-152103
-161625
18883.3
13892.2
11214.5
9748.47
9050.59
8913.5
9226.2
9921.38
10953
12285.7
13888.4
15731.2
17782.6
20008.5
22370.3
24825.2
27325.7
29820
32252.6
34565.5
36699.1
38594.3
40193.1
41440.6
42285.9
42683.2
42592.2
41978
40810.8
39064.4
36714.6
33736
30099.3
25766.9
20689.2
14801.6
8022.96
258.518
-8591.83
-18617.1
-29869.9
-42332.4
-55878.3
-70238.6
-84982.3
-99528.7
-113208
-125389
-135731
-144723
18475.1
13465.9
10751.8
9230.37
8457.27
8224.23
8419.31
8974.44
9843.11
10989.7
12383.6
13995.7
15796.4
17753.4
19831.6
21991.8
24191
26382.8
28517.4
30542.9
32406.5
34055.6
35439
36508.1
37218.6
37530.2
37408.1
36822.5
35748
34162.8
32046.9
29379.6
26136.4
22286.1
17786.6
12582.8
6604.94
-228.883
-8005.47
-16802.4
-26665.9
-37582.1
-49443.7
-62020.7
-74945.5
-87723.9
-99791.3
-110631
-120007
-128493
18065.3
13039.4
10291.4
8718.4
7874.88
7551.65
7635.78
8058.39
8772.46
9742.22
10937.4
12330
13891.7
15592.8
17400.9
19280.8
21193.9
23098.6
24950.9
26704.9
28314.1
29732.2
30914.5
31818.6
32405.9
32641.8
32496.6
31944.8
30965.5
29540.7
27654.2
25289.4
22426.4
19039.5
15093.6
10542.2
5326.1
-624.758
-7384.9
-15021.3
-23574.7
-33034.7
-43311.9
-54213.6
-65430.8
-76550.9
-87107.3
-96689.1
-105161
-113173
17651.8
12611
9832.82
8213.24
7305.82
6900.09
6882.04
7181.93
7752.2
8556.97
9566.4
10753.3
12091.1
13552.3
15107.5
16724.9
18370.3
20006.9
21596
23097.6
24470.9
25675.9
26673.6
27427.7
27905
28076
27915.5
27402.5
26519.4
25252.1
23587.5
21512.7
19011.7
16063.9
12640.3
8702.22
4199.82
-926.075
-6738.87
-13296
-20633.1
-28743.4
-37554.1
-46906.6
-56546.5
-66135.7
-75298.2
-83720.3
-91358.3
-98934
17228.6
12175.4
9371.71
7712.31
6749.28
6270.69
6161.25
6350.23
6789.54
7443.2
8281.81
9279.21
10410.4
11649.9
12971.4
14346.6
15745.1
17134.9
18482.3
19752.5
20910.6
21921.8
22753.1
23373.3
23754.3
23871.4
23703.4
23232.9
22446.1
21331.4
19879
18078.7
15918.2
13381
10443.7
7074.38
3231.61
-1134.13
-6076.28
-11643.7
-17867.8
-24744.8
-32217.4
-40157.9
-48361.4
-56557.5
-64452.1
-71819.8
-78699.8
-85878.6
16784.9
11722.6
8899.7
7209.15
6200.97
5661.26
5473.17
5564.87
5887.71
6405.69
7089.93
7915.31
8858.42
9896.12
11004.6
12159
13332.9
14498.4
15626.6
16687.6
17651.7
18489.5
19172.8
19675.5
19974.1
20047.9
19879.5
19454.9
18763
17794.8
16542.9
14999.8
13155.9
10998.5
8508.65
5660.52
2420.07
-1253.76
-5405.62
-10076.9
-15294.9
-21059.2
-27326
-33995.4
-40906.8
-47850.2
-54605.2
-61025.3
-67223.9
-74046
16303.1
11236.5
8403.08
6692.9
5652.8
5066.24
4814.34
4824.09
5046.29
5445.09
5992.23
6663.81
7438.08
8294.09
9210.75
10166.3
11137.9
12101.8
13033.5
13907.6
14699.1
15383.5
15937.1
16338.4
16567.7
16608.2
16445.9
16069.5
15470.2
14641.4
13577.5
12273
10720.9
8911.21
6829.2
4454
1758.01
-1292.45
-4734.33
-8602.37
-12920.6
-17691.1
-22882.2
-28418.6
-34178.6
-40005.9
-45745
-51319.9
-56910.4
-63413.9
15756.6
10692.9
7861.51
6147.53
5092.75
4476.79
4178.33
4123.1
4261.58
4558.28
4985.9
5521.9
6146.35
6840.55
7586.03
8364.07
9155.3
9939.7
10696.7
11405.3
12044.8
12594.8
13036.1
13350.9
13523.4
13539.9
13389.2
13062.4
12552.9
11855.6
10966.7
9882.2
8597.03
7103.63
5390.56
3441.3
1233.72
-1259.44
-4068.43
-7222.16
-10741.6
-14631.1
-18869.3
-23402.1
-28141.8
-32979
-37815.4
-42637.4
-47685
-53903.5
15104.5
10055.4
7245.85
5551.1
4504.82
3881.27
3556.33
3454.74
3527.18
3739.04
4064.39
4482.42
4975.24
5526.45
6120.25
6740.83
7372.09
7997.53
8600.26
9163.25
9669.62
10103
10447.8
10689.8
10816.5
10816.9
10682.4
10406.1
9983.01
9409.49
8682.83
7800.33
6758.42
5551.48
4170.79
2603.49
832.151
-1164.95
-3412.19
-5933.31
-8746.41
-11857.5
-15253.8
-18899
-22734.7
-26691.6
-30721.5
-34866.9
-39423.2
-45382.1
14282.4
9269.69
6515.3
4875.12
3869.56
3266.06
2938.06
2810.33
2834.81
2978.72
3218.21
3534.66
3912.52
4337.88
4797.62
5278.81
5768.46
6253.34
6720.05
7155.09
7545.18
7877.43
8139.71
8320.94
8411.32
8402.56
8287.97
8062.42
7722.25
7264.93
6688.64
5991.6
5171.34
4223.84
3142.56
1917.77
536.042
-1019.5
-2768.02
-4728.59
-6916.48
-9338.59
-11988.8
-14845.5
-17874
-21039.1
-24335.8
-27856.7
-31950.9
-37661.3
13182.2
8251.45
5613.44
4084.66
3165.65
2617.33
2313.23
2180.77
2175.21
2267.09
2435.62
2665.05
2942.56
3256.95
3597.83
3955.16
4318.92
4678.99
5025.2
5347.35
5635.43
5879.75
6071.25
6201.65
6263.69
6251.25
6159.42
5984.52
5723.97
5376.07
4939.65
4413.58
3796.25
3084.84
2274.68
1358.64
326.805
-833.421
-2136.51
-3597.15
-5227.68
-7034.98
-9017.62
-11165
-13461
-15897.2
-18503.6
-21416.7
-25040.6
-30484.7
11604.5
6865.51
4464.89
3141.36
2373.62
1923.92
1673.53
1557.9
1539.1
1593.08
1703.4
1857.97
2047.15
2262.68
2497.04
2743.03
2993.55
3241.46
3479.63
3700.93
3898.39
4065.27
4195.31
4282.77
4322.65
4310.77
4243.79
4119.24
3935.42
3691.25
3386.03
3019.1
2589.46
2095.26
1533.38
898.976
185.222
-616.604
-1516.63
-2525.32
-3651.81
-4902.02
-6277.1
-7773.68
-9388.17
-11129.8
-13051.7
-15321.7
-18396.1
-23485.9
9129.65
4891.64
2979.69
2013.73
1483.47
1181.82
1015.05
935.917
918.079
945.486
1007.48
1096.38
1206.19
1331.83
1468.74
1612.59
1759.13
1904.12
2043.34
2172.57
2287.69
2384.75
2460.05
2510.24
2532.4
2524.09
2483.36
2408.81
2299.47
2154.74
1974.27
1757.71
1504.52
1213.66
883.339
510.741
91.8842
-378.365
-906.009
-1497.32
-2157.97
-2891.96
-3701.04
-4585.28
-5546.86
-6600.95
-7803.1
-9319.89
-11623.9
-16066
4717.68
2001.48
1092.1
703.772
507.288
399.431
340.511
312.307
305.187
313.455
333.398
362.38
398.356
439.618
484.632
531.953
580.167
627.869
673.656
716.136
753.947
785.786
810.433
826.783
833.875
830.907
817.245
792.426
756.141
708.201
648.492
576.911
493.286
397.283
288.319
165.469
27.4246
-127.51
-301.323
-496.109
-713.786
-955.784
-1222.88
-1515.52
-1835.43
-2190.29
-2607.3
-3176.39
-4214.41
-6997.57
1999.81
1325.98
883.324
623.78
470.435
379.696
328.467
303.969
298.641
307.675
327.788
356.56
392.075
432.696
476.94
523.396
570.678
617.405
662.195
703.679
740.518
771.428
795.212
810.79
817.221
813.725
799.692
774.682
738.406
690.698
631.471
560.646
478.083
383.484
276.309
155.689
20.3804
-131.229
-301.031
-490.999
-702.9
-937.955
-1196.58
-1478.48
-1783.55
-2114.36
-2481.9
-2916.94
-3484.46
-4223.24
4885.66
3534.08
2482.07
1802.69
1380.74
1125.15
979.868
911.274
898.562
928.144
990.569
1078.79
1187.17
1310.85
1445.41
1586.63
1730.33
1872.36
2008.54
2134.74
2246.89
2341.12
2413.79
2461.63
2481.77
2471.83
2429.97
2354.81
2245.48
2101.44
1922.41
1708.13
1458.15
1171.54
846.645
480.81
70.2575
-389.899
-905.365
-1482.06
-2125.2
-2838.2
-3621.81
-4474.06
-5392.36
-6379.22
-7453.77
-8667.91
-10100.4
-11650
6853.67
5197.71
3799
2839.29
2219.3
1835.88
1617.49
1517.88
1506.91
1564.13
1674.94
1828.21
2014.86
2227
2457.32
2698.79
2944.44
3187.27
3420.24
3636.35
3828.71
3990.74
4116.24
4199.63
4236.02
4221.32
4152.34
4026.7
3842.83
3599.78
3296.96
2933.87
2509.65
2022.67
1470.02
847.129
147.538
-637.067
-1516.32
-2500.08
-3596.8
-4811.46
-6143.75
-7587.44
-9132.41
-10771.4
-12512.3
-14390.8
-16443.4
-18439.7
8232.09
6436.97
4852.36
3722.9
2973.36
2503.98
2239.07
2126.53
2130.69
2226.42
2395.17
2622.45
2896.14
3205.5
3540.47
3891.2
4247.87
4600.54
4939.17
5253.75
5534.39
5771.6
5956.46
6080.88
6137.74
6121.11
6026.26
5849.66
5588.92
5242.5
4809.44
4288.82
3679.25
2978.2
2181.34
1281.95
270.613
-864.665
-2137.65
-3562.23
-5149.78
-6906.03
-8827.82
-10901.3
-13103.1
-15407
-17795.2
-20268.4
-22809.7
-25102.8
9241.12
7380.32
5699.01
4474.4
3649.78
3132.64
2848.32
2742.96
2778.2
2926.04
3165.12
3478.27
3850.76
4269.22
4720.9
5193.16
5673.23
6148.1
6604.57
7029.36
7409.37
7731.95
7985.19
8158.23
8241.5
8226.94
8108.08
7880.04
7539.39
7083.86
6511.87
5821.94
5011.94
4078.2
3014.68
1812.17
457.937
-1064.1
-2772.19
-4684.35
-6814.73
-9168.87
-11738.8
-14499.7
-17409.7
-20415.7
-23465.1
-26515
-29496.3
-32034
10015.9
8124.41
6395.97
5124.33
4264.87
3731.75
3452.99
3375.03
3458.53
3673.87
3997.8
4411.04
4896.62
5438.75
6022.05
6631.04
7249.9
7862.37
8451.83
9001.51
9494.79
9915.54
10248.5
10479.8
10597.1
10589.8
10449.5
10169.7
9745.66
9174.12
8452.68
7579.04
6550.05
5360.61
4002.58
2463.84
727.813
-1226.19
-3421.37
-5880.23
-8619.53
-11643.8
-14938.5
-18464.4
-22156.1
-25927.5
-29683.8
-33333.6
-36756.5
-39530.3
10640.6
8736.74
6989.91
5702.53
4837.45
4313.93
4062.78
4031.51
4180.7
4479.95
4904.73
5434.09
6049.1
6731.68
7463.86
8227.26
9002.87
9770.94
10511.2
11203
11826
12360
12786.3
13087.3
13247.7
13254.2
13095.8
12764.2
12253.1
11557.9
10675.1
9601.26
8331.89
6860.07
5175.11
3261.42
1097.97
-1341.25
-4085.04
-7160.82
-10588
-14369.4
-18482.1
-22869.4
-27437.5
-32061.3
-36597.4
-40900.4
-44796.9
-47820.5
11169.7
9263.92
7516.43
6234.36
5385.18
4891.8
4687.4
4720.74
4952.76
5352.72
5895.21
6557.93
7320.17
8161.66
9061.82
9999.27
10951.6
11895.4
12806.3
13659.7
14430.7
15095.2
15630
16014.1
16228.2
16255.9
16083.8
15700.9
15099.1
14272.2
13215.2
11923.3
10390.1
8606.5
6558.65
4226.87
1584.9
-1399.37
-4761.17
-8533.45
-12738.5
-17376.8
-22415.4
-27776.8
-33334.4
-38917.6
-44327.7
-49359
-53780.3
-57079.3
11639.3
9738.23
8001.78
6739.84
5922.85
5476.27
5335.2
5449.59
5780.89
6298.26
6975.64
7789.58
8717.7
9737.57
10826
11958.4
13108.8
14249.8
15352.9
16388.6
17327.7
18141.2
18801.4
19282.9
19562.6
19620.4
19439.5
19006.5
18310.8
17344.3
16100.1
14571.4
12749.9
10623.3
8174.36
5378.37
2203.03
-1390.85
-5445.84
-10001.2
-15082.4
-20687.2
-26770.9
-33232.1
-39906.4
-46571.4
-52965.4
-58814.9
-63824.6
-67431.8
12073.9
10181.9
8464.67
7233.8
6461.68
6075.64
6012.28
6222.63
6668.66
7319.57
8148.77
9131.77
10244.6
11462.6
12759.9
14108.7
15479.2
16839.7
18157
19396.8
20524.7
21506.7
22310
22904.5
23262.4
23359.7
23176
22694.8
21902.7
20789.2
19345.1
17561.3
15426.6
12925.7
10036.5
6728.98
2963.63
-1306.8
-6133.29
-11562.3
-17622.9
-24309.8
-31564.9
-39259.8
-47187.3
-55066.3
-62564.3
-69331.3
-75000.5
-78952.9
12489.4
10609.8
8917.84
7726.4
7009.24
6695.12
6721.89
7041.48
7616.42
8415.97
9413.1
10582.3
11898.1
13333.6
14860.1
16446.4
18058.6
19660.6
21214.1
22679.6
24017.1
25187.2
26151.6
26874.7
27324.1
27471.2
27291.5
26764.8
25874.6
24607.6
22952
20895.6
18424.2
15518.3
12150.9
8285.12
3873.68
-1139.94
-6816.27
-13209.9
-20354
-28240
-36794.8
-45860.1
-55180.6
-64409.7
-73135.8
-80923.7
-87326.5
-91662.9
12896.1
11031.2
9369.17
8223.65
7569.53
7336.71
7464.1
7904.49
8620.91
9582.71
10762.5
12133.7
13669.3
15340.3
17114.9
18958.4
20832.8
22697
24507.6
26219.4
27786.6
29163.6
30306.5
31173.9
31728
31935.3
31766.7
31198.1
30209.4
28784
26906.8
24562.5
21732.9
18393.9
14512.7
10045.1
4934.67
-885.436
-7486.37
-14931.8
-23259.7
-32457.9
-42437.1
-53005.6
-63855.6
-74568.2
-84644.3
-93554.8
-100765
-105524
13299.7
11451.2
9822.52
8727.9
8143.15
7999.15
8235.76
8806.54
9675.03
10810.7
12185.7
13772.6
15542.8
17464.9
19504.3
21622.5
23777.1
25922
28008.4
29985.1
31800
33401.3
34738.8
35765.1
36436.5
36714.1
36564.2
35958.1
34871.7
33284.6
31178.2
28533.3
25327.6
21531.6
17105.8
11997.9
6141.5
-541.71
-8134.57
-16710.9
-26313.8
-36927.5
-48445.2
-60639.3
-73144.8
-85464.3
-97003.6
-107131
-115216
-120434
13701.9
11871.2
10278.4
9238.34
8727.65
8678.11
9030.47
9739.02
10767.8
12086.3
13666.5
15479.9
17496.4
19682.2
21999.8
24406.8
26856.2
29297.1
31674.6
33931.5
36009.3
37849.6
39395.6
40593.5
41393.5
41751.1
41627.3
40988.6
39806.6
38056.8
35716.5
32762.4
29167.1
24895.6
19901.1
14122.2
7481.57
-111.247
-8751.88
-18525
-29479.7
-41596.4
-54749.6
-68673.8
-82942.6
-96974.8
-110075
-121501
-130521
-136227
14101.9
12289.9
10734.5
9751.42
9317.85
9366.45
9838.82
10690
11884.4
13391.9
15183.9
17231.1
19501.6
21959.7
24564.6
27270
30024.7
32772.1
35451.7
38000.1
40352
42442.3
44207.5
45587.1
46525.1
46971
46880.3
46214.4
44940.4
43029.1
40453.7
37186.1
33193.8
28435.4
22856.3
16385.5
8934.27
398.843
-9329.85
-20348.2
-32711.4
-46396.3
-61258.1
-76991.3
-93105.4
-108931
-123666
-136454
-146454
-152673
14496.6
12703.5
11186.4
10261.3
9906.16
10054.5
10648.7
11644.5
13006.9
14705.8
16712.2
18996.2
21524.2
24258.2
27154.3
30162.7
33227.3
36286.5
39273.8
42119.5
44751.8
47098.6
49089.6
50657.7
51740.4
52281
52229.5
51542.1
50180.8
48112
45304
41724
37333.9
32085.5
25916.3
18745
10470.9
976.514
-9861.22
-22150.8
-35954.3
-51244.5
-67857.3
-85446
-103454
-121123
-137538
-151726
-162733
-169480
14880.9
13106.7
11627.7
10760.2
10483.1
10730.6
11445.8
12585.2
14114.3
16003
18222.3
20741.2
23524.8
26532.8
29718.3
33027.9
36401
39770.8
43065.1
46208
49121
51725.4
53944.1
55703.2
56933.8
57573.4
57565.9
56862.3
55419.8
53199.9
50166.1
46280.5
41499.3
35767.6
29014.2
21147.7
12055
1604.82
-10340.2
-23901.1
-39146.6
-56046.1
-74415.8
-93867.7
-113780
-133301
-151407
-167003
-179024
-186303
15248.6
13492.8
12050.7
11239.3
11037.9
11381.5
12214.1
13492.8
15183.5
17256.4
19682.1
22428.9
25460.5
28734.4
32201.1
35803.4
39476.6
43148.8
46742.5
50175.4
53363
56220
58662.6
60610.5
61988.6
62728.3
62768
62053.4
60536.8
58174.8
54926.2
50748.1
45590.7
39392.3
32073.4
23532.3
13643.6
2262.37
-10763.1
-25565.9
-42221.8
-60697
-80788.2
-102067
-123847
-145187
-164953
-181933
-194950
-202752
15592.6
13854.1
12446.9
11688.5
11558.7
11993.2
12936.7
14346.9
16190.3
18437.2
21058
24020.1
27286.1
30811.6
34544.3
38423.8
42381.3
46340.4
50218.2
53926.9
57375.9
60473.9
63130.7
65260.1
66780.8
67618.6
67706.7
66985.6
65402.7
62910.3
59462.4
55010.9
49500.6
42862.9
35010.4
25831.5
15188.8
2924.18
-11127.7
-27111.9
-45110.8
-65087.6
-86820.8
-109844
-133407
-156484
-177837
-196140
-210110
-218411
15905.4
14182.8
12807.6
12097.7
12033.4
12551.1
13596.2
15126.9
17110.2
19516.4
22315.8
25475.4
28956.3
32712.4
36689.2
40823.1
45041.8
49264.5
53403.6
57366.4
61056.6
64377.1
67232.4
69530.4
71184.4
72115
72250.3
71526.4
69886
67277
63649.1
58949.6
53118
46079.3
37738.6
27974.8
16639.8
3562.87
-11433.9
-28506.9
-47744.6
-69107.5
-92357.3
-116992
-142205
-166889
-189710
-209237
-224089
-232852
16179.7
14471.1
13124.1
12456.8
12450.3
13041.4
14176
15812.9
17919.4
20466.1
23423
26756.6
30427.1
34386.7
38579
42937.6
47386.9
51842.7
56213.2
60400.8
64304.8
67823.1
70855
73303.4
75077
76091.5
76270.7
75546.5
73857.6
71148.1
67363.7
62447.4
56333.9
48942.8
40171.9
29892.2
17945.6
4150.27
-11683.1
-29720.7
-50057
-72649.8
-97246.1
-123312
-149990
-176103
-200230
-220846
-236482
-245657
16408.5
14711.6
13388.2
12756.8
12798.6
13451.1
14660.6
16386.4
18596.1
21260.5
24349.4
27828.9
31658.2
35788.4
40161.3
44708.4
49351.4
54002.9
58567.6
62944.5
67028.4
70713.3
73894.2
76469.9
78345
79431.2
79648.8
78925.9
77198.1
74406
70491.8
65395.2
59046.5
51360.7
42229.9
31517.7
19057.8
4659.11
-11877.5
-30726.7
-51987.6
-75616.3
-101347
-128620
-156534
-183851
-209079
-230614
-246912
-256434
16585.9
14898.1
13593.1
12989.4
13068.8
13769
15036.7
16831.7
19121.6
21877.4
25068.9
28661.7
32614.5
36877.5
41390.9
46084.6
50878.4
55682.3
60398.5
64922.8
69147.1
72962.1
76259.5
78935