/*--------------------------------*- C++ -*----------------------------------*\
| =========                 |                                                 |
| \\      /  F ield         | OpenFOAM: The Open Source CFD Toolbox           |
|  \\    /   O peration     | Version:  5.x                                   |
|   \\  /    A nd           | Web:      www.OpenFOAM.org                      |
|    \\/     M anipulation  |                                                 |
\*---------------------------------------------------------------------------*/
FoamFile
{
    version     2.0;
    format      ascii;
    class       volScalarField;
    location    "0.2";
    object      T;
}
// * * * * * * * * * * * * * * * * * * * * * * * * * * * * * * * * * * * * * //

dimensions      [0 0 0 1 0 0 0];

internalField   nonuniform List<scalar> 
25000
(
300.679
301.209
301.479
301.645
301.761
301.848
301.92
301.984
302.045
302.107
302.171
302.24
302.316
302.399
302.492
302.593
302.704
302.825
302.955
303.095
303.242
303.396
303.556
303.72
303.887
304.054
304.219
304.381
304.536
304.683
304.82
304.943
305.05
305.14
305.209
305.255
305.275
305.266
305.224
305.146
305.026
304.86
304.644
304.371
304.037
303.637
303.161
302.594
301.891
300.908
301.208
302.443
303.165
303.635
303.971
304.229
304.443
304.635
304.818
305.002
305.196
305.405
305.634
305.888
306.167
306.475
306.812
307.179
307.574
307.996
308.443
308.911
309.397
309.895
310.401
310.908
311.411
311.901
312.374
312.821
313.236
313.611
313.939
314.213
314.424
314.566
314.629
314.603
314.477
314.24
313.879
313.377
312.722
311.897
310.888
309.678
308.247
306.557
304.519
301.907
301.478
303.163
304.225
304.949
305.481
305.899
306.251
306.568
306.874
307.184
307.511
307.865
308.254
308.684
309.159
309.683
310.257
310.88
311.553
312.272
313.034
313.832
314.66
315.51
316.373
317.239
318.097
318.936
319.745
320.511
321.221
321.865
322.429
322.901
323.267
323.514
323.627
323.588
323.38
322.982
322.37
321.521
320.409
319.01
317.3
315.255
312.848
310.034
306.719
302.675
301.643
303.63
304.944
305.875
306.578
307.141
307.625
308.067
308.497
308.937
309.404
309.911
310.47
311.088
311.773
312.527
313.355
314.255
315.226
316.265
317.365
318.519
319.717
320.948
322.198
323.453
324.698
325.917
327.092
328.207
329.243
330.182
331.008
331.701
332.242
332.611
332.785
332.741
332.452
331.887
331.013
329.796
328.199
326.189
323.733
320.804
317.374
313.403
308.807
303.386
301.756
303.957
305.464
306.563
307.414
308.111
308.72
309.286
309.844
310.42
311.036
311.708
312.45
313.273
314.185
315.192
316.296
317.499
318.798
320.187
321.66
323.205
324.811
326.461
328.139
329.826
331.5
333.141
334.725
336.23
337.631
338.905
340.028
340.974
341.717
342.231
342.485
342.445
342.077
341.338
340.185
338.571
336.45
333.776
330.512
326.626
322.096
316.892
310.953
304.111
301.839
304.203
305.861
307.101
308.082
308.903
309.634
310.326
311.016
311.736
312.512
313.362
314.305
315.352
316.515
317.8
319.212
320.749
322.411
324.189
326.076
328.057
330.117
332.236
334.393
336.563
338.72
340.836
342.882
344.829
346.646
348.303
349.766
351.006
351.987
352.674
353.028
353.007
352.562
351.642
350.189
348.144
345.446
342.042
337.886
332.948
327.21
320.659
313.263
304.89
301.905
304.398
306.182
307.543
308.641
309.58
310.432
311.251
312.081
312.956
313.904
314.95
316.113
317.409
318.849
320.443
322.195
324.105
326.171
328.384
330.733
333.202
335.771
338.416
341.111
343.826
346.527
349.181
351.752
354.203
356.495
358.589
360.447
362.028
363.289
364.184
364.665
364.678
364.162
363.051
361.273
358.754
355.42
351.206
346.059
339.949
332.868
324.823
315.813
305.749
301.959
304.562
306.454
307.923
309.131
310.184
311.158
312.11
313.087
314.128
315.265
316.525
317.931
319.501
321.249
323.185
325.315
327.64
330.156
332.854
335.719
338.733
341.872
345.108
348.408
351.735
355.051
358.314
361.479
364.502
367.336
369.933
372.245
374.221
375.809
376.953
377.591
377.656
377.074
375.762
373.633
370.594
366.557
361.441
355.189
347.77
339.186
329.471
318.658
306.707
302.008
304.706
306.697
308.266
309.58
310.747
311.845
312.936
314.071
315.291
316.633
318.127
319.799
321.67
323.758
326.072
328.621
331.406
334.421
337.656
341.096
344.717
348.492
352.386
356.362
360.376
364.381
368.328
372.163
375.833
379.281
382.45
385.281
387.713
389.68
391.116
391.945
392.084
391.443
389.922
387.412
383.804
378.989
372.873
365.39
356.51
346.25
334.668
321.84
307.779
302.052
304.84
306.922
308.588
310.007
311.288
312.515
313.753
315.055
316.469
318.032
319.781
321.744
323.945
326.404
329.134
332.143
335.432
338.997
342.825
346.898
351.189
355.667
360.291
365.016
369.792
374.565
379.274
383.858
388.252
392.39
396.204
399.622
402.571
404.974
406.749
407.804
408.041
407.351
405.611
402.693
398.464
392.795
385.577
376.732
366.232
354.109
340.451
325.381
308.971
302.094
304.967
307.138
308.9
310.423
311.823
313.183
314.575
316.056
317.676
319.479
321.503
323.78
326.339
329.201
332.382
335.891
339.73
343.894
348.369
353.133
358.157
363.404
368.827
374.375
379.989
385.605
391.155
396.566
401.763
406.667
411.198
415.272
418.803
421.698
423.859
425.179
425.539
424.808
422.843
419.49
414.59
407.993
399.568
389.23
376.95
362.775
346.83
329.287
310.287
302.135
305.091
307.35
309.208
310.838
312.358
313.858
315.412
317.082
318.921
320.979
323.296
325.911
328.853
332.148
335.813
339.86
344.291
349.1
354.271
359.782
365.597
371.675
377.963
384.402
390.925
397.459
403.924
410.237
416.31
422.053
427.372
432.169
436.343
439.785
442.38
444.002
444.511
443.752
441.557
437.744
432.127
424.53
414.802
402.844
388.629
372.223
353.786
333.548
311.722
302.175
305.215
307.562
309.516
311.254
312.898
314.543
316.266
318.133
320.203
322.529
325.157
328.127
331.475
335.229
339.408
344.026
349.085
354.579
360.491
366.796
373.454
380.418
387.63
395.022
402.517
410.034
417.481
424.763
431.78
438.428
444.599
450.18
455.053
459.094
462.168
464.128
464.81
464.036
461.608
457.315
450.942
442.282
431.164
417.474
401.186
382.384
361.269
338.131
313.266
302.216
305.338
307.772
309.824
311.672
313.444
315.237
317.134
319.206
321.515
324.12
327.071
330.413
334.184
338.416
343.132
348.346
354.062
360.274
366.963
374.1
381.643
389.538
397.72
406.114
414.635
423.188
431.672
439.979
447.996
455.605
462.682
469.099
474.722
479.406
482.998
485.327
486.207
485.43
482.77
477.984
470.822
461.051
448.471
432.955
414.478
393.143
369.194
342.987
314.902
302.256
305.46
307.983
310.131
312.09
313.991
315.935
318.01
320.29
322.844
325.735
329.017
332.739
336.945
341.669
346.937
352.765
359.158
366.109
373.598
381.594
390.05
398.906
408.092
417.523
427.105
436.733
446.294
455.667
464.725
473.335
481.36
488.653
495.062
500.425
504.565
507.291
508.388
507.623
504.734
499.447
491.478
480.56
466.469
449.061
428.311
404.344
377.447
348.045
316.606
302.295
305.581
308.19
310.435
312.505
314.534
316.629
318.881
321.371
324.172
327.35
330.966
335.073
339.717
344.938
350.763
357.211
364.288
371.987
380.286
389.152
398.533
408.365
418.569
429.054
439.715
450.437
461.095
471.555
481.677
491.313
500.307
508.5
515.719
521.782
526.493
529.634
530.965
530.222
527.113
521.326
512.545
500.467
484.841
465.508
442.442
415.788
385.88
353.213
318.347
302.334
305.698
308.392
310.731
312.909
315.064
317.308
319.736
322.433
325.477
328.939
332.884
337.371
342.449
348.161
354.539
361.601
369.356
377.796
386.9
396.629
406.929
417.731
428.948
440.482
452.218
464.031
475.784
487.331
498.517
509.179
519.148
528.245
536.28
543.051
548.34
551.905
553.481
552.771
549.452
543.176
533.592
520.363
503.21
481.957
456.578
427.24
394.321
358.387
320.09
302.371
305.81
308.586
311.015
313.297
315.574
317.96
320.557
323.454
326.732
330.469
334.733
339.587
345.086
351.274
358.186
365.844
374.256
383.416
393.299
403.866
415.059
426.803
439.006
451.56
464.343
477.22
490.041
502.648
514.874
526.541
537.464
547.447
556.285
563.754
569.615
573.603
575.426
574.758
571.243
564.499
554.139
539.793
521.155
498.031
470.396
438.436
402.575
363.447
321.795
302.405
305.915
308.767
311.281
313.66
316.051
318.572
321.328
324.412
327.912
331.908
336.473
341.673
347.568
354.205
361.622
369.842
378.875
388.714
399.335
410.695
422.732
435.368
448.504
462.026
475.802
489.688
503.523
517.139
530.354
542.978
554.811
565.641
575.246
583.384
589.796
594.193
596.258
595.638
591.944
584.762
573.671
558.269
538.224
513.325
483.546
449.093
410.432
368.264
323.419
302.436
306.011
308.931
311.523
313.991
316.486
319.129
322.03
325.287
328.989
333.221
338.06
343.578
349.835
356.883
364.762
373.497
383.099
393.561
404.858
416.944
429.757
443.212
457.205
471.615
486.304
501.118
515.887
530.431
544.558
558.065
570.738
582.352
592.667
601.426
608.35
613.129
615.423
614.852
611
603.421
591.662
575.292
553.954
527.422
495.669
458.919
417.677
372.706
324.916
302.464
306.095
309.076
311.735
314.281
316.867
319.619
322.647
326.055
329.935
334.375
339.457
345.253
351.829
359.24
367.526
376.715
386.818
397.829
409.722
422.45
435.947
450.125
464.875
480.071
495.567
511.201
526.797
542.163
557.099
571.388
584.807
597.117
608.064
617.377
624.757
629.88
632.381
631.859
627.87
619.944
607.597
590.373
567.892
539.916
506.415
467.63
424.102
376.645
326.243
302.487
306.165
309.196
311.913
314.524
317.186
320.027
323.163
326.696
330.725
335.339
340.624
346.654
353.497
361.211
369.838
379.407
389.931
401.402
413.794
427.061
441.131
455.915
471.301
487.156
503.33
519.653
535.944
552.002
567.617
582.566
596.613
609.51
620.99
630.77
638.538
643.951
646.63
646.151
642.052
633.836
620.998
603.058
579.618
550.428
515.458
474.962
429.509
379.961
327.361
302.505
306.219
309.29
312.05
314.712
317.433
320.344
323.563
327.194
331.338
336.088
341.529
347.741
354.792
362.741
371.633
381.498
392.348
404.177
416.959
430.643
445.16
460.416
476.296
492.664
509.366
526.227
543.059
559.656
575.802
591.265
605.803
619.158
631.055
641.201
649.272
654.914
657.732
657.29
653.106
644.667
631.447
612.95
588.763
558.627
522.512
480.682
433.727
382.548
328.233
302.517
306.256
309.353
312.144
314.84
317.601
320.561
323.836
327.534
331.757
336.6
342.148
348.484
355.677
363.787
372.86
382.927
394.001
406.075
419.122
433.093
447.915
463.494
479.713
496.433
513.496
530.725
547.928
564.894
581.404
597.22
612.094
625.764
637.948
648.344
656.624
662.424
665.339
664.923
660.682
652.09
638.609
619.731
595.033
564.249
527.349
484.604
436.62
384.322
328.831
302.523
306.275
309.386
312.191
314.905
317.687
320.67
323.974
327.707
331.97
336.859
342.462
348.861
356.126
364.318
373.483
383.653
394.84
407.038
420.22
434.336
449.314
465.057
481.447
498.346
515.593
533.009
550.4
567.555
584.249
600.245
615.29
629.12
641.45
651.974
660.36
666.24
669.206
668.802
664.533
655.863
642.25
623.179
598.221
567.108
529.809
486.598
438.092
385.225
329.135
302.523
306.275
309.386
312.191
314.905
317.687
320.67
323.974
327.707
331.97
336.859
342.462
348.861
356.126
364.318
373.483
383.653
394.84
407.038
420.22
434.336
449.314
465.057
481.447
498.346
515.593
533.009
550.4
567.555
584.249
600.245
615.29
629.12
641.45
651.974
660.36
666.24
669.206
668.802
664.532
655.863
642.25
623.179
598.221
567.108
529.809
486.598
438.092
385.225
329.135
302.517
306.256
309.353
312.144
314.84
317.601
320.561
323.836
327.534
331.757
336.6
342.148
348.484
355.677
363.787
372.86
382.927
394.001
406.075
419.122
433.093
447.915
463.494
479.713
496.433
513.496
530.725
547.927
564.894
581.404
597.22
612.094
625.764
637.948
648.344
656.624
662.423
665.339
664.923
660.682
652.089
638.609
619.731
595.033
564.249
527.349
484.604
436.62
384.322
328.831
302.505
306.219
309.29
312.05
314.712
317.433
320.344
323.563
327.194
331.338
336.088
341.529
347.741
354.792
362.741
371.633
381.498
392.348
404.177
416.959
430.643
445.16
460.416
476.296
492.664
509.366
526.227
543.059
559.656
575.802
591.265
605.803
619.158
631.055
641.2
649.271
654.913
657.732
657.29
653.106
644.666
631.447
612.95
588.763
558.627
522.512
480.681
433.727
382.548
328.233
302.487
306.165
309.196
311.913
314.524
317.186
320.027
323.163
326.696
330.725
335.339
340.624
346.654
353.497
361.211
369.838
379.407
389.931
401.402
413.794
427.06
441.131
455.915
471.3
487.156
503.329
519.653
535.943
552.002
567.617
582.566
596.613
609.509
620.99
630.769
638.537
643.95
646.629
646.151
642.052
633.836
620.997
603.057
579.617
550.427
515.458
474.962
429.509
379.961
327.361
302.464
306.095
309.076
311.735
314.281
316.867
319.619
322.647
326.055
329.935
334.375
339.456
345.253
351.829
359.24
367.526
376.715
386.818
397.829
409.722
422.45
435.947
450.125
464.875
480.071
495.567
511.201
526.796
542.163
557.098
571.388
584.807
597.117
608.064
617.376
624.757
629.879
632.38
631.858
627.87
619.944
607.597
590.372
567.891
539.915
506.415
467.63
424.101
376.645
326.244
302.436
306.011
308.931
311.523
313.991
316.486
319.129
322.03
325.287
328.989
333.221
338.06
343.578
349.835
356.883
364.762
373.497
383.099
393.561
404.858
416.944
429.757
443.212
457.205
471.615
486.304
501.117
515.887
530.431
544.558
558.065
570.738
582.351
592.667
601.426
608.349
613.129
615.423
614.852
610.999
603.421
591.661
575.291
553.953
527.421
495.668
458.919
417.677
372.706
324.916
302.405
305.915
308.767
311.281
313.66
316.051
318.572
321.328
324.412
327.912
331.908
336.473
341.673
347.568
354.205
361.622
369.842
378.875
388.714
399.335
410.695
422.732
435.368
448.504
462.026
475.802
489.687
503.523
517.138
530.353
542.977
554.81
565.641
575.245
583.384
589.795
594.193
596.258
595.637
591.943
584.762
573.67
558.268
538.223
513.324
483.545
449.092
410.431
368.264
323.419
302.371
305.81
308.585
311.015
313.297
315.573
317.96
320.557
323.454
326.732
330.469
334.733
339.587
345.086
351.274
358.186
365.844
374.256
383.415
393.299
403.866
415.059
426.803
439.006
451.56
464.343
477.219
490.04
502.648
514.873
526.54
537.463
547.447
556.284
563.753
569.614
573.603
575.425
574.757
571.242
564.498
554.138
539.792
521.154
498.031
470.396
438.436
402.575
363.447
321.795
302.334
305.698
308.392
310.731
312.909
315.064
317.308
319.736
322.433
325.477
328.939
332.884
337.371
342.449
348.161
354.539
361.601
369.356
377.796
386.9
396.629
406.929
417.73
428.948
440.482
452.218
464.031
475.784
487.331
498.516
509.179
519.148
528.244
536.279
543.05
548.339
551.905
553.48
552.77
549.451
543.176
533.591
520.362
503.209
481.957
456.578
427.24
394.321
358.387
320.091
302.295
305.581
308.19
310.435
312.505
314.534
316.629
318.881
321.371
324.172
327.35
330.966
335.072
339.717
344.938
350.763
357.211
364.288
371.986
380.286
389.151
398.532
408.364
418.569
429.054
439.715
450.437
461.094
471.555
481.676
491.312
500.307
508.499
515.718
521.782
526.492
529.633
530.965
530.221
527.112
521.325
512.544
500.466
484.84
465.507
442.441
415.788
385.88
353.213
318.347
302.256
305.46
307.983
310.131
312.09
313.991
315.935
318.01
320.29
322.844
325.735
329.017
332.739
336.945
341.669
346.937
352.765
359.158
366.109
373.598
381.594
390.049
398.906
408.092
417.523
427.105
436.732
446.293
455.666
464.724
473.335
481.359
488.652
495.061
500.424
504.564
507.29
508.388
507.622
504.733
499.446
491.477
480.56
466.469
449.061
428.311
404.344
377.447
348.044
316.606
302.216
305.338
307.772
309.824
311.672
313.444
315.237
317.134
319.206
321.515
324.12
327.071
330.413
334.184
338.416
343.132
348.346
354.062
360.274
366.963
374.1
381.643
389.538
397.72
406.114
414.635
423.187
431.671
439.979
447.996
455.604
462.682
469.099
474.721
479.406
482.997
485.326
486.206
485.43
482.769
477.983
470.821
461.05
448.47
432.954
414.477
393.143
369.194
342.987
314.902
302.175
305.215
307.562
309.516
311.254
312.898
314.543
316.266
318.133
320.203
322.529
325.157
328.127
331.475
335.229
339.408
344.025
349.084
354.579
360.491
366.796
373.454
380.418
387.63
395.021
402.517
410.033
417.48
424.762
431.779
438.427
444.598
450.179
455.053
459.094
462.167
464.127
464.809
464.035
461.607
457.314
450.941
442.281
431.163
417.473
401.185
382.384
361.269
338.131
313.266
302.135
305.091
307.35
309.208
310.838
312.358
313.858
315.412
317.082
318.921
320.979
323.296
325.911
328.853
332.148
335.813
339.86
344.291
349.1
354.271
359.782
365.597
371.674
377.963
384.402
390.925
397.459
403.924
410.237
416.31
422.053
427.372
432.169
436.342
439.784
442.38
444.001
444.51
443.751
441.556
437.743
432.126
424.529
414.801
402.844
388.629
372.223
353.786
333.548
311.722
302.094
304.967
307.138
308.9
310.423
311.822
313.183
314.575
316.056
317.676
319.479
321.503
323.78
326.339
329.201
332.382
335.891
339.73
343.894
348.369
353.133
358.157
363.403
368.827
374.374
379.989
385.605
391.155
396.566
401.763
406.667
411.198
415.272
418.802
421.697
423.858
425.178
425.538
424.808
422.843
419.489
414.589
407.992
399.568
389.229
376.949
362.775
346.83
329.287
310.287
302.052
304.84
306.922
308.588
310.007
311.288
312.515
313.753
315.055
316.468
318.032
319.781
321.744
323.945
326.404
329.134
332.143
335.432
338.997
342.825
346.898
351.189
355.666
360.29
365.016
369.792
374.564
379.273
383.857
388.252
392.39
396.203
399.621
402.571
404.974
406.748
407.804
408.041
407.35
405.61
402.693
398.463
392.795
385.576
376.731
366.232
354.108
340.451
325.38
308.971
302.008
304.706
306.697
308.266
309.58
310.747
311.845
312.936
314.071
315.291
316.633
318.127
319.799
321.67
323.758
326.072
328.621
331.405
334.421
337.656
341.096
344.717
348.491
352.386
356.362
360.375
364.381
368.327
372.163
375.832
379.281
382.45
385.281
387.712
389.68
391.115
391.944
392.083
391.443
389.921
387.412
383.803
378.988
372.873
365.39
356.51
346.25
334.668
321.84
307.779
301.959
304.562
306.454
307.923
309.131
310.184
311.158
312.11
313.087
314.128
315.265
316.525
317.931
319.501
321.249
323.185
325.315
327.64
330.156
332.853
335.719
338.733
341.872
345.108
348.408
351.735
355.051
358.313
361.479
364.501
367.335
369.932
372.244
374.221
375.809
376.952
377.59
377.656
377.073
375.762
373.633
370.594
366.556
361.441
355.189
347.769
339.186
329.471
318.658
306.707
301.905
304.398
306.182
307.543
308.641
309.58
310.432
311.251
312.081
312.956
313.904
314.95
316.113
317.409
318.849
320.443
322.195
324.105
326.171
328.384
330.733
333.202
335.771
338.416
341.111
343.825
346.527
349.181
351.752
354.202
356.494
358.589
360.447
362.028
363.289
364.184
364.665
364.677
364.161
363.05
361.272
358.753
355.42
351.206
346.059
339.949
332.868
324.823
315.813
305.749
301.839
304.203
305.861
307.101
308.082
308.903
309.634
310.326
311.016
311.736
312.512
313.362
314.305
315.352
316.515
317.8
319.212
320.749
322.411
324.189
326.076
328.057
330.117
332.236
334.393
336.563
338.72
340.836
342.882
344.829
346.646
348.302
349.766
351.006
351.987
352.674
353.028
353.007
352.562
351.642
350.189
348.143
345.446
342.042
337.886
332.948
327.21
320.659
313.263
304.89
301.756
303.957
305.464
306.563
307.414
308.111
308.72
309.286
309.844
310.42
311.036
311.708
312.45
313.273
314.185
315.192
316.296
317.499
318.798
320.187
321.66
323.205
324.811
326.461
328.139
329.826
331.5
333.141
334.725
336.23
337.631
338.905
340.028
340.974
341.717
342.231
342.484
342.445
342.076
341.338
340.185
338.571
336.45
333.776
330.511
326.626
322.096
316.892
310.953
304.111
301.643
303.63
304.944
305.875
306.578
307.141
307.625
308.067
308.497
308.937
309.404
309.911
310.47
311.088
311.772
312.527
313.355
314.255
315.226
316.265
317.365
318.519
319.717
320.947
322.198
323.453
324.698
325.917
327.092
328.206
329.242
330.182
331.008
331.701
332.242
332.611
332.785
332.741
332.452
331.887
331.013
329.796
328.199
326.189
323.733
320.804
317.374
313.403
308.807
303.386
301.478
303.163
304.225
304.949
305.481
305.899
306.251
306.568
306.874
307.184
307.511
307.865
308.254
308.684
309.159
309.683
310.257
310.88
311.553
312.272
313.033
313.832
314.66
315.51
316.373
317.239
318.097
318.936
319.745
320.51
321.221
321.865
322.429
322.901
323.267
323.514
323.627
323.588
323.38
322.981
322.37
321.521
320.409
319.01
317.3
315.255
312.848
310.034
306.719
302.675
301.208
302.443
303.165
303.635
303.971
304.229
304.443
304.635
304.818
305.002
305.196
305.405
305.634
305.887
306.167
306.475
306.812
307.179
307.574
307.996
308.443
308.911
309.397
309.895
310.401
310.908
311.41
311.901
312.374
312.821
313.236
313.611
313.939
314.213
314.424
314.566
314.629
314.603
314.477
314.24
313.878
313.377
312.722
311.897
310.888
309.678
308.247
306.557
304.519
301.907
300.679
301.209
301.479
301.645
301.761
301.848
301.92
301.984
302.045
302.107
302.171
302.24
302.316
302.399
302.492
302.593
302.704
302.825
302.955
303.095
303.242
303.396
303.556
303.72
303.887
304.054
304.219
304.381
304.536
304.683
304.82
304.943
305.05
305.14
305.209
305.255
305.275
305.266
305.224
305.146
305.026
304.86
304.644
304.371
304.037
303.637
303.161
302.594
301.891
300.908
300.239
300.56
300.77
300.914
301.019
301.102
301.171
301.233
301.293
301.353
301.416
301.484
301.559
301.641
301.732
301.832
301.941
302.06
302.188
302.325
302.469
302.621
302.778
302.939
303.102
303.266
303.428
303.586
303.738
303.881
304.014
304.134
304.238
304.325
304.392
304.435
304.454
304.444
304.401
304.323
304.205
304.042
303.83
303.563
303.238
302.85
302.393
301.857
301.226
300.463
300.56
301.394
301.974
302.387
302.695
302.939
303.145
303.331
303.51
303.69
303.881
304.087
304.312
304.562
304.837
305.14
305.471
305.832
306.22
306.635
307.074
307.534
308.011
308.5
308.995
309.492
309.984
310.464
310.926
311.362
311.767
312.131
312.45
312.715
312.918
313.053
313.111
313.081
312.955
312.719
312.362
311.869
311.227
310.42
309.437
308.263
306.885
305.282
303.418
301.242
300.769
301.972
302.848
303.492
303.984
304.38
304.718
305.027
305.325
305.629
305.951
306.299
306.682
307.105
307.573
308.088
308.653
309.266
309.928
310.634
311.382
312.166
312.978
313.812
314.658
315.507
316.347
317.168
317.957
318.705
319.397
320.023
320.571
321.027
321.38
321.615
321.719
321.674
321.464
321.068
320.464
319.629
318.539
317.172
315.504
313.519
311.196
308.514
305.44
301.936
300.912
302.381
303.486
304.322
304.976
305.512
305.977
306.407
306.828
307.259
307.718
308.217
308.767
309.376
310.05
310.792
311.606
312.491
313.446
314.467
315.548
316.681
317.856
319.063
320.289
321.518
322.737
323.929
325.077
326.164
327.174
328.088
328.89
329.56
330.081
330.432
330.594
330.541
330.248
329.686
328.823
327.626
326.06
324.095
321.7
318.853
315.537
311.735
307.43
302.611
301.015
302.682
303.967
304.962
305.756
306.421
307.009
307.561
308.107
308.672
309.277
309.938
310.668
311.478
312.376
313.367
314.453
315.636
316.913
318.278
319.724
321.242
322.817
324.436
326.08
327.732
329.371
330.976
332.523
333.991
335.357
336.596
337.685
338.601
339.317
339.807
340.042
339.99
339.616
338.881
337.742
336.155
334.075
331.46
328.275
324.496
320.109
315.11
309.503
303.311
301.093
302.913
304.343
305.472
306.392
307.178
307.885
308.559
309.235
309.942
310.705
311.542
312.469
313.5
314.645
315.909
317.297
318.809
320.442
322.19
324.043
325.988
328.009
330.087
332.201
334.326
336.437
338.506
340.504
342.404
344.174
345.785
347.206
348.405
349.35
350.006
350.336
350.297
349.845
348.929
347.493
345.481
342.835
339.505
335.45
330.643
325.079
318.769
311.745
304.067
301.156
303.101
304.65
305.896
306.931
307.831
308.657
309.457
310.27
311.129
312.062
313.091
314.235
315.51
316.928
318.496
320.219
322.097
324.127
326.302
328.608
331.032
333.552
336.146
338.787
341.446
344.089
346.684
349.195
351.585
353.818
355.855
357.658
359.188
360.402
361.258
361.707
361.697
361.17
360.063
358.306
355.828
352.558
348.435
343.411
337.46
330.586
322.821
314.226
304.902
301.209
303.259
304.914
306.266
307.408
308.42
309.365
310.295
311.253
312.276
313.394
314.634
316.017
317.562
319.282
321.187
323.282
325.567
328.04
330.69
333.504
336.462
339.542
342.714
345.947
349.205
352.45
355.639
358.73
361.679
364.439
366.965
369.208
371.121
372.651
373.744
374.342
374.378
373.782
372.474
370.369
367.378
363.418
358.412
352.307
345.078
336.74
327.347
316.996
305.835
301.256
303.4
305.151
306.601
307.847
308.97
310.037
311.104
312.217
313.416
314.736
316.207
317.852
319.694
321.747
324.024
326.531
329.268
332.231
335.409
338.786
342.34
346.043
349.86
353.756
357.686
361.604
365.461
369.206
372.786
376.144
379.226
381.973
384.326
386.222
387.595
388.373
388.477
387.817
386.298
383.817
380.265
375.542
369.557
362.249
353.594
343.62
332.408
320.094
306.878
301.299
303.531
305.372
306.917
308.265
309.501
310.695
311.906
313.184
314.574
316.112
317.833
319.765
321.931
324.35
327.035
329.993
333.227
336.729
340.489
344.488
348.699
353.091
357.623
362.253
366.928
371.596
376.199
380.674
384.96
388.99
392.698
396.014
398.868
401.185
402.883
403.876
404.069
403.354
401.615
398.729
394.566
389.005
381.94
373.301
363.065
351.274
338.04
323.542
308.039
301.34
303.656
305.584
307.223
308.675
310.027
311.353
312.715
314.169
315.762
317.536
319.527
321.768
324.286
327.102
330.23
333.68
337.454
341.545
345.939
350.617
355.546
360.691
366.007
371.441
376.937
382.43
387.853
393.136
398.203
402.979
407.384
411.337
414.754
417.544
419.614
420.858
421.163
420.402
418.437
415.118
410.295
403.822
395.577
385.478
373.505
359.714
344.251
327.345
309.32
301.38
303.778
305.793
307.526
309.082
310.554
312.017
313.539
315.179
316.988
319.012
321.293
323.865
326.76
330.001
333.606
337.585
341.939
346.664
351.742
357.151
362.857
368.817
374.98
381.286
387.671
394.06
400.378
406.54
412.461
418.053
423.224
427.878
431.917
435.236
437.722
439.254
439.696
438.9
436.702
432.927
427.398
419.944
410.423
398.742
384.881
368.914
351.023
331.492
310.717
301.42
303.9
306.001
307.829
309.492
311.086
312.692
314.38
316.214
318.25
320.538
323.124
326.048
329.342
333.033
337.143
341.682
346.654
352.051
357.857
364.045
370.577
377.406
384.473
391.712
399.048
406.398
413.673
420.781
427.622
434.095
440.093
445.508
450.224
454.121
457.067
458.92
459.523
458.703
456.269
452.019
445.744
437.248
426.366
412.992
397.108
378.806
358.306
335.954
312.22
301.46
304.021
306.209
308.132
309.904
311.623
313.375
315.235
317.271
319.542
322.105
325.009
328.297
332.008
336.17
340.807
345.933
351.55
357.652
364.22
371.224
378.624
386.364
394.382
402.602
410.939
419.302
427.59
435.697
443.513
450.92
457.799
464.025
469.466
473.983
477.427
479.632
480.419
479.588
476.919
472.178
465.127
455.539
443.227
428.07
410.05
389.28
366.02
340.679
313.812
301.5
304.141
306.416
308.435
310.316
312.162
314.063
316.098
318.339
320.851
323.695
326.925
330.588
334.726
339.372
344.551
350.28
356.561
363.389
370.742
378.589
386.883
395.566
404.566
413.8
423.176
432.589
441.928
451.075
459.904
468.286
476.086
483.161
489.363
494.535
498.506
501.089
502.079
501.249
498.347
493.109
485.263
474.551
460.76
443.754
423.517
400.182
374.051
345.6
315.469
301.539
304.26
306.62
308.735
310.725
312.697
314.746
316.957
319.404
322.159
325.286
328.844
332.885
337.454
342.588
348.316
354.653
361.607
369.168
377.316
386.016
395.217
404.855
414.853
425.118
435.549
446.031
456.441
466.647
476.513
485.892
494.635
502.582
509.568
515.416
519.935
522.914
524.123
523.305
520.178
514.444
505.797
493.947
478.654
459.768
437.272
411.319
382.257
350.629
317.164
301.577
304.376
306.819
309.027
311.123
313.22
315.416
317.798
320.45
323.444
326.851
330.733
335.147
340.143
345.761
352.03
358.972
366.591
374.88
383.817
393.363
403.465
414.053
425.043
436.335
447.816
459.364
470.843
482.109
493.011
503.389
513.077
521.901
529.677
536.208
541.282
544.667
546.104
545.309
541.968
535.749
526.31
513.33
496.543
475.783
451.032
422.463
390.469
355.662
318.859
301.613
304.487
307.01
309.307
311.506
313.722
316.058
318.608
321.455
324.681
328.358
332.554
337.33
342.738
348.823
355.619
363.145
371.409
380.404
390.106
400.474
411.451
422.962
434.916
447.207
459.712
472.298
484.819
497.119
509.034
520.389
531.004
540.688
549.24
556.445
562.07
565.858
567.527
566.763
563.222
556.537
546.333
532.258
514.018
491.431
464.479
433.356
398.498
360.583
320.518
301.647
304.59
307.189
309.569
311.864
314.192
316.661
319.367
322.4
325.843
329.775
334.266
339.383
345.181
351.707
358.999
367.077
375.951
385.613
396.038
407.184
418.989
431.373
444.241
457.478
470.953
484.525
498.036
511.319
524.197
536.483
547.982
558.488
567.782
575.633
581.786
585.965
587.862
587.135
583.411
576.29
565.367
550.255
530.638
506.318
477.275
443.724
406.14
365.268
322.096
301.678
304.684
307.351
309.807
312.19
314.621
317.21
320.059
323.261
326.903
331.068
335.83
341.258
347.412
354.343
362.088
370.672
380.105
390.378
401.466
413.324
425.889
439.075
452.782
466.887
481.255
495.733
510.156
524.344
538.11
551.255
563.57
574.835
584.817
593.266
599.912
604.456
606.568
605.881
601.995
594.479
582.897
566.836
545.954
520.039
489.072
453.283
413.188
369.588
323.552
301.705
304.767
307.493
310.017
312.476
314.997
317.693
320.667
324.018
327.835
332.204
337.204
342.907
349.375
356.661
364.807
373.837
383.761
394.574
406.247
418.734
431.969
445.863
460.311
475.185
490.341
505.621
520.85
535.84
550.393
564.299
577.338
589.278
599.872
608.855
615.94
620.812
623.119
622.472
618.445
610.584
598.423
581.524
559.524
532.199
499.528
461.758
419.436
373.419
324.843
301.727
304.836
307.612
310.191
312.715
315.311
318.095
321.175
324.65
328.613
333.154
338.353
344.286
351.016
358.601
367.081
376.484
386.822
398.085
410.249
423.263
437.06
451.548
466.618
482.136
497.956
513.909
529.815
545.479
560.694
575.242
588.891
601.4
612.51
621.944
629.402
634.551
637.025
636.415
632.274
624.124
611.479
593.878
570.94
542.43
508.326
468.889
424.695
376.643
325.93
301.745
304.889
307.704
310.327
312.9
315.554
318.408
321.569
325.14
329.217
333.891
339.245
345.356
352.291
360.107
368.847
378.541
389.199
400.814
413.358
426.783
441.017
455.968
471.521
487.542
503.877
520.355
536.789
552.979
568.71
583.758
597.884
610.837
622.35
632.138
639.887
645.255
647.86
647.281
643.052
634.68
621.658
603.511
579.843
550.409
515.19
474.453
428.798
379.159
326.778
301.757
304.926
307.767
310.419
313.026
315.72
318.621
321.838
325.475
329.63
334.395
339.854
346.087
353.162
361.136
370.054
379.946
390.824
402.679
415.484
429.189
443.723
458.99
474.874
491.239
507.927
524.765
541.561
558.111
574.197
589.587
604.04
617.298
629.089
639.119
647.068
652.587
655.284
654.726
650.438
641.914
628.636
610.115
585.947