/*--------------------------------*- C++ -*----------------------------------*\
| =========                 |                                                 |
| \\      /  F ield         | OpenFOAM: The Open Source CFD Toolbox           |
|  \\    /   O peration     | Version:  5.x                                   |
|   \\  /    A nd           | Web:      www.OpenFOAM.org                      |
|    \\/     M anipulation  |                                                 |
\*---------------------------------------------------------------------------*/
FoamFile
{
    version     2.0;
    format      ascii;
    class       volScalarField;
    location    "1.1";
    object      gradTz;
}
// * * * * * * * * * * * * * * * * * * * * * * * * * * * * * * * * * * * * * //

dimensions      [0 -1 0 1 0 0 0];

internalField   nonuniform List<scalar> 
25000
(
-6333.93
-6850.47
-6999.75
-7052.21
-7073.73
-7083.45
-7087.95
-7089.87
-7090.4
-7090.16
-7089.47
-7088.51
-7087.39
-7086.18
-7084.94
-7083.68
-7082.44
-7081.24
-7080.07
-7078.96
-7077.92
-7076.96
-7076.08
-7075.3
-7074.62
-7074.05
-7073.61
-7073.29
-7073.12
-7073.09
-7073.22
-7073.5
-7073.94
-7074.54
-7075.3
-7076.2
-7077.23
-7078.37
-7079.56
-7080.73
-7081.77
-7082.5
-7082.56
-7081.37
-7077.7
-7068.9
-7048.36
-6996.96
-6848.78
-6333.36
-6850.47
-7839.55
-8182.35
-8316.94
-8375.62
-8402.93
-8415.74
-8421.2
-8422.68
-8421.89
-8419.77
-8416.87
-8413.5
-8409.89
-8406.15
-8402.4
-8398.68
-8395.06
-8391.57
-8388.25
-8385.13
-8382.23
-8379.6
-8377.25
-8375.21
-8373.51
-8372.18
-8371.24
-8370.72
-8370.64
-8371.01
-8371.86
-8373.18
-8374.98
-8377.25
-8379.95
-8383.04
-8386.44
-8390.02
-8393.56
-8396.72
-8398.96
-8399.3
-8396
-8385.67
-8361.11
-8305.41
-8173.98
-7834.48
-6848.77
-6999.76
-8182.37
-8628.55
-8815.96
-8901.58
-8942.58
-8962.06
-8970.32
-8972.38
-8970.87
-8967.23
-8962.34
-8956.71
-8950.68
-8944.46
-8938.21
-8932.03
-8926
-8920.2
-8914.68
-8909.49
-8904.68
-8900.29
-8896.38
-8892.99
-8890.17
-8887.96
-8886.4
-8885.53
-8885.39
-8886.02
-8887.42
-8889.62
-8892.61
-8896.38
-8900.88
-8906.04
-8911.71
-8917.69
-8923.63
-8929.01
-8932.92
-8933.89
-8929.22
-8913.86
-8877.44
-8796.77
-8614.63
-8173.94
-6996.94
-7052.24
-8317.03
-8816.05
-9034.67
-9137.92
-9188.44
-9212.64
-9222.75
-9224.91
-9222.41
-9217.13
-9210.19
-9202.27
-9193.82
-9185.12
-9176.39
-9167.76
-9159.35
-9151.25
-9143.54
-9136.3
-9129.59
-9123.47
-9118.02
-9113.29
-9109.35
-9106.26
-9104.08
-9102.87
-9102.68
-9103.54
-9105.5
-9108.57
-9112.75
-9118.01
-9124.31
-9131.52
-9139.47
-9147.88
-9156.29
-9163.99
-9169.84
-9171.9
-9166.82
-9148.37
-9104.23
-9007.9
-8796.62
-8305.26
-7048.3
-7073.81
-8375.83
-8901.85
-9138.14
-9252.12
-9308.64
-9335.73
-9346.71
-9348.44
-9344.69
-9337.63
-9328.57
-9318.33
-9307.45
-9296.29
-9285.09
-9274.04
-9263.27
-9252.9
-9243.04
-9233.77
-9225.18
-9217.35
-9210.37
-9204.32
-9199.27
-9195.32
-9192.53
-9190.98
-9190.73
-9191.83
-9194.34
-9198.26
-9203.62
-9210.37
-9218.44
-9227.7
-9237.93
-9248.79
-9259.73
-9269.91
-9277.95
-9281.62
-9277.07
-9257.34
-9208.99
-9103.86
-8876.97
-8360.76
-7068.76
-7083.59
-8403.33
-8943.14
-9189.03
-9309.06
-9368.9
-9397.37
-9408.38
-9409.21
-9403.94
-9394.95
-9383.71
-9371.14
-9357.84
-9344.23
-9330.6
-9317.15
-9304.07
-9291.47
-9279.48
-9268.22
-9257.78
-9248.26
-9239.78
-9232.42
-9226.29
-9221.49
-9218.1
-9216.21
-9215.9
-9217.24
-9220.28
-9225.05
-9231.56
-9239.77
-9249.6
-9260.9
-9273.42
-9286.75
-9300.27
-9313.04
-9323.53
-9329.26
-9326.08
-9306.56
-9256.64
-9147.37
-8912.9
-8385
-7077.46
-7088.18
-8416.4
-8963.04
-9213.79
-9336.8
-9398.08
-9426.78
-9437.12
-9436.66
-9429.65
-9418.62
-9405.15
-9390.23
-9374.53
-9358.51
-9342.48
-9326.69
-9311.32
-9296.53
-9282.46
-9269.24
-9256.99
-9245.83
-9235.87
-9227.24
-9220.04
-9214.4
-9210.41
-9208.19
-9207.83
-9209.4
-9212.96
-9218.56
-9226.21
-9235.86
-9247.42
-9260.73
-9275.51
-9291.32
-9307.48
-9322.94
-9336.08
-9344.25
-9343.09
-9324.89
-9275.27
-9164.89
-8927.55
-8394.89
-7080.98
-7090.22
-8422.22
-8971.89
-9224.67
-9348.72
-9410.14
-9438.24
-9447.41
-9445.34
-9436.42
-9423.27
-9407.54
-9390.28
-9372.21
-9353.81
-9335.43
-9317.34
-9299.74
-9282.82
-9266.72
-9251.59
-9237.58
-9224.8
-9213.4
-9203.52
-9195.28
-9188.82
-9184.26
-9181.71
-9181.29
-9183.08
-9187.16
-9193.57
-9202.32
-9213.37
-9226.64
-9241.94
-9258.96
-9277.23
-9296.04
-9314.27
-9330.2
-9341.09
-9342.43
-9326.35
-9278.28
-9168.69
-8931.26
-8397.6
-7081.98
-7090.91
-8424.16
-8974.7
-9227.84
-9351.69
-9412.4
-9439.33
-9446.96
-9443.08
-9432.13
-9416.82
-9398.82
-9379.25
-9358.85
-9338.12
-9317.46
-9297.13
-9277.37
-9258.37
-9240.3
-9223.32
-9207.58
-9193.24
-9180.45
-9169.35
-9160.1
-9152.84
-9147.71
-9144.85
-9144.36
-9146.37
-9150.94
-9158.13
-9167.96
-9180.39
-9195.32
-9212.55
-9231.77
-9252.49
-9273.93
-9294.96
-9313.78
-9327.58
-9331.74
-9318.31
-9272.59
-9164.98
-8929.07
-8396.51
-7081.65
-7090.86
-8423.94
-8974.11
-9226.61
-9349.51
-9408.96
-9434.35
-9440.22
-9434.39
-9421.36
-9403.86
-9383.62
-9361.78
-9339.1
-9316.12
-9293.24
-9270.75
-9248.89
-9227.88
-9207.9
-9189.13
-9171.73
-9155.88
-9141.73
-9129.46
-9119.23
-9111.2
-9105.52
-9102.35
-9101.81
-9104.01
-9109.06
-9117.01
-9127.88
-9141.63
-9158.17
-9177.29
-9198.66
-9221.77
-9245.83
-9269.64
-9291.38
-9308.18
-9315.36
-9304.9
-9262.03
-9157.09
-8923.65
-8393.36
-7080.62
-7090.4
-8422.51
-8971.61
-9222.89
-9344.38
-9402.24
-9425.88
-9429.85
-9422
-9406.87
-9387.21
-9364.77
-9340.72
-9315.84
-9290.68
-9265.66
-9241.09
-9217.22
-9194.28
-9172.47
-9151.97
-9132.98
-9115.67
-9100.22
-9086.82
-9075.64
-9066.87
-9060.66
-9057.19
-9056.58
-9058.98
-9064.49
-9073.16
-9085.03
-9100.06
-9118.15
-9139.09
-9162.55
-9187.98
-9214.58
-9241.14
-9265.79
-9285.61
-9295.9
-9288.57
-9248.82
-9146.94
-8916.49
-8389.1
-7079.22
-7089.71
-8420.42
-8968.05
-9217.78
-9337.62
-9393.71
-9415.49
-9417.51
-9407.64
-9390.42
-9368.65
-9344.09
-9317.91
-9290.91
-9263.66
-9236.6
-9210.03
-9184.24
-9159.45
-9135.89
-9113.75
-9093.23
-9074.53
-9057.84
-9043.35
-9031.27
-9021.78
-9015.07
-9011.3
-9010.64
-9013.22
-9019.16
-9028.52
-9041.34
-9057.6
-9077.17
-9099.86
-9125.32
-9152.99
-9182.06
-9211.29
-9238.78
-9261.6
-9274.99
-9270.85
-9234.32
-9135.69
-8908.47
-8384.31
-7077.62
-7088.9
-8417.99
-8963.97
-9211.98
-9330.05
-9384.32
-9404.2
-9404.28
-9392.42
-9373.18
-9349.37
-9322.77
-9294.55
-9265.54
-9236.31
-9207.29
-9178.83
-9151.21
-9124.68
-9099.45
-9075.75
-9053.78
-9033.75
-9015.88
-9000.37
-8987.43
-8977.26
-8970.07
-8966.02
-8965.3
-8968.05
-8974.39
-8984.41
-8998.14
-9015.55
-9036.54
-9060.89
-9088.25
-9118.07
-9149.5
-9181.3
-9211.54
-9237.27
-9253.7
-9252.71
-9219.41
-9124.05
-8900.15
-8379.31
-7075.95
-7088.05
-8415.43
-8959.69
-9205.95
-9322.23
-9374.67
-9392.69
-9390.87
-9377.09
-9355.92
-9330.17
-9301.63
-9271.48
-9240.56
-9209.46
-9178.61
-9148.37
-9119.03
-9090.84
-9064.05
-9038.87
-9015.54
-8994.27
-8975.28
-8958.8
-8945.05
-8934.24
-8926.58
-8922.27
-8921.49
-8924.4
-8931.13
-8941.76
-8956.33
-8974.83
-8997.15
-9023.07
-9052.23
-9084.08
-9117.76
-9151.99
-9184.86
-9213.38
-9232.74
-9234.79
-9204.64
-9112.5
-8891.86
-8374.32
-7074.29
-7087.2
-8412.88
-8955.43
-9199.96
-9314.49
-9365.16
-9381.39
-9377.76
-9362.16
-9339.17
-9311.59
-9281.22
-9249.27
-9216.57
-9183.71
-9151.15
-9119.24
-9088.3
-9058.57
-9030.31
-9003.76
-8979.15
-8956.72
-8936.69
-8919.3
-8904.79
-8893.38
-8885.29
-8880.73
-8879.9
-8882.95
-8890.03
-8901.23
-8916.6
-8936.11
-8959.67
-8987.06
-9017.91
-9051.65
-9087.43
-9123.97
-9159.31
-9190.46
-9212.6
-9217.55
-9190.4
-9101.34
-8883.85
-8369.5
-7072.68
-7086.39
-8410.43
-8951.33
-9194.21
-9307.07
-9356.06
-9370.61
-9365.28
-9347.98
-9323.29
-9294.01
-9261.95
-9228.33
-9193.98
-9159.5
-9125.35
-9091.91
-9059.47
-9028.32
-8998.71
-8970.89
-8945.1
-8921.58
-8900.59
-8882.36
-8867.15
-8855.18
-8846.69
-8841.9
-8841.01
-8844.19
-8851.6
-8863.32
-8879.42
-8899.88
-8924.58
-8953.33
-8985.74
-9021.24
-9058.97
-9097.64
-9135.29
-9168.9
-9193.63
-9201.3
-9176.96
-9090.8
-8876.28
-8364.94
-7071.16
-7085.62
-8408.13
-8947.49
-9188.83
-9300.14
-9347.58
-9360.56
-9353.67
-9334.8
-9308.54
-9277.71
-9244.11
-9208.96
-9173.09
-9137.13
-9101.54
-9066.68
-9032.89
-9000.44
-8969.59
-8940.6
-8913.73
-8889.23
-8867.36
-8848.36
-8832.5
-8820.02
-8811.16
-8806.16
-8805.22
-8808.52
-8816.22
-8828.42
-8845.19
-8866.5
-8892.25
-8922.23
-8956.07
-8993.19
-9032.71
-9073.33
-9113.09
-9148.96
-9176.08
-9186.25
-9164.51
-9081.04
-8869.26
-8360.71
-7069.75
-7084.92
-8406.02
-8943.98
-9183.91
-9293.81
-9339.83
-9351.39
-9343.08
-9322.8
-9295.13
-9262.89
-9227.89
-9191.36
-9154.13
-9116.84
-9079.94
-9043.82
-9008.8
-8975.17
-8943.21
-8913.18
-8885.33
-8859.94
-8837.27
-8817.58
-8801.13
-8788.19
-8779
-8773.8
-8772.81
-8776.22
-8784.19
-8796.82
-8814.18
-8836.26
-8862.96
-8894.06
-8929.18
-8967.75
-9008.88
-9051.27
-9092.94
-9130.85
-9160.14
-9172.57
-9153.2
-9072.16
-8862.87
-8356.86
-7068.46
-7084.29
-8404.14
-8940.84
-9179.51
-9288.15
-9332.91
-9343.21
-9333.64
-9312.1
-9283.17
-9249.69
-9213.46
-9175.7
-9137.27
-9098.79
-9060.74
-9023.49
-8987.39
-8952.72
-8919.77
-8888.81
-8860.1
-8833.93
-8810.55
-8790.24
-8773.28
-8759.92
-8750.44
-8745.07
-8744.03
-8747.53
-8755.73
-8768.74
-8786.64
-8809.4
-8836.93
-8869.01
-8905.28
-8945.13
-8987.69
-9031.65
-9075.01
-9114.73
-9145.94
-9160.39
-9143.12
-9064.24
-8857.18
-8353.43
-7067.32
-7083.74
-8402.5
-8938.1
-9175.68
-9283.23
-9326.89
-9336.1
-9325.43
-9302.8
-9272.78
-9238.22
-9200.91
-9162.1
-9122.63
-9083.12
-9044.07
-9005.86
-8968.81
-8933.25
-8899.44
-8867.67
-8838.22
-8811.35
-8787.36
-8766.52
-8749.11
-8735.4
-8725.66
-8720.14
-8719.06
-8722.64
-8731.04
-8744.38
-8762.73
-8786.08
-8814.33
-8847.27
-8884.52
-8925.49
-8969.29
-9014.6
-9059.43
-9100.73
-9133.6
-9149.81
-9134.35
-9057.37
-8852.23
-8350.45
-7066.32
-7083.28
-8401.11
-8935.8
-9172.45
-9279.08
-9321.81
-9330.1
-9318.51
-9294.96
-9264.03
-9228.56
-9190.36
-9150.65
-9110.3
-9069.94
-9030.04
-8991.01
-8953.18
-8916.85
-8882.33
-8849.88
-8819.8
-8792.36
-8767.85
-8746.56
-8728.77
-8714.76
-8704.8
-8699.15
-8698.05
-8701.69
-8710.26
-8723.87
-8742.6
-8766.45
-8795.31
-8828.97
-8867.04
-8908.95
-8953.79
-9000.24
-9046.31
-9088.93
-9123.21
-9140.89
-9126.97
-9051.57
-8848.06
-8347.94
-7065.48
-7082.91
-8400
-8933.93
-9169.84
-9275.72
-9317.72
-9325.26
-9312.93
-9288.64
-9256.98
-9220.77
-9181.84
-9141.42
-9100.36
-9059.31
-9018.73
-8979.04
-8940.57
-8903.64
-8868.53
-8835.54
-8804.95
-8777.05
-8752.12
-8730.47
-8712.38
-8698.12
-8687.99
-8682.24
-8681.1
-8684.8
-8693.5
-8707.33
-8726.38
-8750.62
-8779.97
-8814.2
-8852.95
-8895.61
-8941.29
-8988.66
-9035.73
-9079.41
-9114.82
-9133.69
-9121.01
-9046.89
-8844.69
-8345.91
-7064.8
-7082.63
-8399.15
-8932.53
-9167.87
-9273.19
-9314.63
-9321.6
-9308.72
-9283.87
-9251.65
-9214.89
-9175.42
-9134.45
-9092.87
-9051.29
-9010.2
-8970.01
-8931.07
-8893.67
-8858.13
-8824.72
-8793.75
-8765.5
-8740.26
-8718.33
-8700.01
-8685.57
-8675.31
-8669.47
-8668.32
-8672.05
-8680.85
-8694.86
-8714.13
-8738.67
-8768.39
-8803.06
-8842.31
-8885.54
-8931.85
-8979.92
-9027.74
-9072.23
-9108.49
-9128.26
-9116.51
-9043.35
-8842.15
-8344.38
-7064.29
-7082.44
-8398.59
-8931.59
-9166.56
-9271.5
-9312.56
-9319.16
-9305.9
-9280.68
-9248.08
-9210.96
-9171.12
-9129.79
-9087.85
-9045.92
-9004.49
-8963.97
-8924.7
-8887
-8851.16
-8817.48
-8786.25
-8757.77
-8732.32
-8710.21
-8691.73
-8677.17
-8666.82
-8660.93
-8659.76
-8663.52
-8672.39
-8686.5
-8705.93
-8730.68
-8760.64
-8795.6
-8835.19
-8878.8
-8925.54
-8974.07
-9022.39
-9067.42
-9104.25
-9124.62
-9113.5
-9040.99
-8840.45
-8343.35
-7063.95
-7082.35
-8398.31
-8931.12
-9165.9
-9270.65
-9311.52
-9317.93
-9304.48
-9279.07
-9246.3
-9208.98
-9168.96
-9127.46
-9085.33
-9043.23
-9001.63
-8960.94
-8921.51
-8883.65
-8847.67
-8813.85
-8782.49
-8753.89
-8728.34
-8706.13
-8687.58
-8672.96
-8662.56
-8656.65
-8655.47
-8659.24
-8668.15
-8682.32
-8701.82
-8726.67
-8756.76
-8791.87
-8831.62
-8875.42
-8922.37
-8971.13
-9019.7
-9065.01
-9102.13
-9122.79
-9111.99
-9039.8
-8839.6
-8342.84
-7063.78
-7082.35
-8398.31
-8931.12
-9165.9
-9270.65
-9311.52
-9317.93
-9304.48
-9279.07
-9246.3
-9208.98
-9168.96
-9127.45
-9085.33
-9043.23
-9001.63
-8960.94
-8921.51
-8883.65
-8847.67
-8813.85
-8782.49
-8753.89
-8728.34
-8706.13
-8687.58
-8672.96
-8662.56
-8656.65
-8655.47
-8659.24
-8668.15
-8682.32
-8701.83
-8726.67
-8756.76
-8791.87
-8831.62
-8875.42
-8922.37
-8971.13
-9019.71
-9065.01
-9102.13
-9122.79
-9111.99
-9039.81
-8839.6
-8342.84
-7063.78
-7082.44
-8398.59
-8931.59
-9166.56
-9271.5
-9312.56
-9319.16
-9305.9
-9280.67
-9248.08
-9210.96
-9171.11
-9129.79
-9087.85
-9045.92
-9004.49
-8963.97
-8924.7
-8887
-8851.16
-8817.48
-8786.25
-8757.76
-8732.32
-8710.21
-8691.73
-8677.17
-8666.82
-8660.93
-8659.76
-8663.52
-8672.39
-8686.5
-8705.93
-8730.68
-8760.64
-8795.61
-8835.19
-8878.8
-8925.54
-8974.07
-9022.39
-9067.42
-9104.26
-9124.62
-9113.5
-9040.99
-8840.45
-8343.35
-7063.95
-7082.63
-8399.15
-8932.53
-9167.87
-9273.19
-9314.63
-9321.6
-9308.72
-9283.87
-9251.65
-9214.89
-9175.41
-9134.45
-9092.86
-9051.28
-9010.2
-8970.01
-8931.06
-8893.67
-8858.12
-8824.72
-8793.75
-8765.5
-8740.26
-8718.33
-8700.01
-8685.57
-8675.31
-8669.47
-8668.32
-8672.05
-8680.86
-8694.86
-8714.13
-8738.68
-8768.39
-8803.07
-8842.31
-8885.54
-8931.86
-8979.93
-9027.74
-9072.23
-9108.5
-9128.26
-9116.52
-9043.36
-8842.16
-8344.38
-7064.29
-7082.91
-8400
-8933.93
-9169.84
-9275.72
-9317.72
-9325.26
-9312.93
-9288.64
-9256.97
-9220.77
-9181.84
-9141.42
-9100.36
-9059.3
-9018.73
-8979.04
-8940.57
-8903.64
-8868.53
-8835.54
-8804.95
-8777.04
-8752.12
-8730.47
-8712.37
-8698.12
-8687.99
-8682.24
-8681.1
-8684.8
-8693.5
-8707.34
-8726.38
-8750.62
-8779.97
-8814.21
-8852.95
-8895.61
-8941.3
-8988.67
-9035.73
-9079.42
-9114.83
-9133.7
-9121.02
-9046.89
-8844.7
-8345.91
-7064.8
-7083.28
-8401.11
-8935.8
-9172.45
-9279.07
-9321.81
-9330.1
-9318.51
-9294.96
-9264.03
-9228.56
-9190.35
-9150.65
-9110.3
-9069.93
-9030.04
-8991.01
-8953.17
-8916.85
-8882.32
-8849.88
-8819.79
-8792.36
-8767.85
-8746.56
-8728.77
-8714.76
-8704.8
-8699.15
-8698.05
-8701.69
-8710.26
-8723.87
-8742.61
-8766.45
-8795.32
-8828.97
-8867.05
-8908.96
-8953.8
-9000.25
-9046.32
-9088.94
-9123.22
-9140.9
-9126.98
-9051.58
-8848.07
-8347.94
-7065.48
-7083.74
-8402.5
-8938.1
-9175.68
-9283.23
-9326.89
-9336.09
-9325.43
-9302.8
-9272.78
-9238.21
-9200.91
-9162.1
-9122.62
-9083.12
-9044.07
-9005.85
-8968.81
-8933.24
-8899.43
-8867.67
-8838.21
-8811.35
-8787.36
-8766.52
-8749.11
-8735.4
-8725.66
-8720.14
-8719.06
-8722.64
-8731.04
-8744.38
-8762.73
-8786.09
-8814.34
-8847.28
-8884.53
-8925.5
-8969.3
-9014.61
-9059.45
-9100.74
-9133.62
-9149.82
-9134.37
-9057.38
-8852.24
-8350.45
-7066.32
-7084.29
-8404.14
-8940.84
-9179.51
-9288.15
-9332.91
-9343.21
-9333.64
-9312.1
-9283.17
-9249.68
-9213.45
-9175.69
-9137.27
-9098.79
-9060.73
-9023.49
-8987.39
-8952.72
-8919.77
-8888.8
-8860.1
-8833.92
-8810.54
-8790.24
-8773.27
-8759.92
-8750.44
-8745.07
-8744.03
-8747.54
-8755.73
-8768.75
-8786.64
-8809.41
-8836.94
-8869.02
-8905.29
-8945.14
-8987.71
-9031.66
-9075.02
-9114.75
-9145.96
-9160.41
-9143.13
-9064.26
-8857.19
-8353.44
-7067.32
-7084.92
-8406.02
-8943.98
-9183.9
-9293.81
-9339.83
-9351.39
-9343.08
-9322.8
-9295.12
-9262.88
-9227.89
-9191.35
-9154.13
-9116.83
-9079.93
-9043.81
-9008.79
-8975.17
-8943.2
-8913.17
-8885.33
-8859.94
-8837.26
-8817.57
-8801.13
-8788.19
-8779
-8773.8
-8772.82
-8776.22
-8784.19
-8796.83
-8814.19
-8836.27
-8862.97
-8894.07
-8929.19
-8967.76
-9008.9
-9051.29
-9092.96
-9130.87
-9160.15
-9172.59
-9153.21
-9072.17
-8862.88
-8356.87
-7068.46
-7085.62
-8408.13
-8947.49
-9188.82
-9300.14
-9347.58
-9360.56
-9353.67
-9334.8
-9308.54
-9277.7
-9244.1
-9208.95
-9173.09
-9137.12
-9101.53
-9066.68
-9032.88
-9000.43
-8969.58
-8940.6
-8913.73
-8889.23
-8867.35
-8848.36
-8832.5
-8820.02
-8811.16
-8806.16
-8805.22
-8808.52
-8816.22
-8828.43
-8845.2
-8866.51
-8892.26
-8922.25
-8956.08
-8993.2
-9032.72
-9073.35
-9113.11
-9148.98
-9176.1
-9186.27
-9164.53
-9081.05
-8869.27
-8360.72
-7069.75
-7086.39
-8410.43
-8951.33
-9194.21
-9307.07
-9356.06
-9370.6
-9365.28
-9347.98
-9323.28
-9294
-9261.95
-9228.33
-9193.97
-9159.49
-9125.35
-9091.9
-9059.47
-9028.31
-8998.7
-8970.88
-8945.09
-8921.58
-8900.59
-8882.36
-8867.14
-8855.18
-8846.69
-8841.9
-8841.01
-8844.2
-8851.6
-8863.33
-8879.43
-8899.89
-8924.6
-8953.34
-8985.75
-9021.26
-9058.99
-9097.66
-9135.31
-9168.92
-9193.65
-9201.32
-9176.98
-9090.82
-8876.29
-8364.95
-7071.16
-7087.2
-8412.88
-8955.42
-9199.96
-9314.49
-9365.15
-9381.38
-9377.75
-9362.15
-9339.16
-9311.58
-9281.22
-9249.27
-9216.56
-9183.7
-9151.14
-9119.24
-9088.29
-9058.56
-9030.3
-9003.75
-8979.14
-8956.71
-8936.68
-8919.3
-8904.78
-8893.37
-8885.29
-8880.73
-8879.9
-8882.95
-8890.03
-8901.24
-8916.61
-8936.12
-8959.68
-8987.07
-9017.92
-9051.67
-9087.45
-9123.99
-9159.33
-9190.49
-9212.63
-9217.58
-9190.42
-9101.36
-8883.86
-8369.51
-7072.68
-7088.05
-8415.43
-8959.69
-9205.95
-9322.23
-9374.66
-9392.68
-9390.86
-9377.08
-9355.92
-9330.17
-9301.62
-9271.48
-9240.56
-9209.45
-9178.6
-9148.36
-9119.02
-9090.83
-9064.04
-9038.86
-9015.53
-8994.26
-8975.27
-8958.8
-8945.04
-8934.24
-8926.58
-8922.27
-8921.5
-8924.41
-8931.13
-8941.76
-8956.34
-8974.84
-8997.16
-9023.09
-9052.25
-9084.1
-9117.78
-9152.01
-9184.89
-9213.4
-9232.77
-9234.82
-9204.66
-9112.52
-8891.87
-8374.33
-7074.29
-7088.9
-8417.99
-8963.97
-9211.98
-9330.05
-9384.32
-9404.2
-9404.27
-9392.41
-9373.18
-9349.37
-9322.76
-9294.55
-9265.53
-9236.3
-9207.28
-9178.83
-9151.21
-9124.67
-9099.44
-9075.74
-9053.77
-9033.75
-9015.88
-9000.37
-8987.43
-8977.26
-8970.06
-8966.02
-8965.3
-8968.06
-8974.4
-8984.42
-8998.15
-9015.56
-9036.55
-9060.9
-9088.27
-9118.09
-9149.52
-9181.32
-9211.56
-9237.3
-9253.73
-9252.73
-9219.43
-9124.07
-8900.16
-8379.31
-7075.95
-7089.71
-8420.42
-8968.05
-9217.78
-9337.61
-9393.71
-9415.49
-9417.5
-9407.63
-9390.42
-9368.65
-9344.08
-9317.9
-9290.9
-9263.66
-9236.59
-9210.02
-9184.23
-9159.44
-9135.88
-9113.74
-9093.22
-9074.52
-9057.83
-9043.35
-9031.27
-9021.78
-9015.07
-9011.3
-9010.64
-9013.23
-9019.16
-9028.53
-9041.35
-9057.61
-9077.19
-9099.88
-9125.34
-9153.01
-9182.09
-9211.31
-9238.81
-9261.63
-9275.02
-9270.87
-9234.35
-9135.71
-8908.49
-8384.31
-7077.62
-7090.4
-8422.51
-8971.61
-9222.89
-9344.38
-9402.24
-9425.87
-9429.85
-9422
-9406.86
-9387.2
-9364.77
-9340.72
-9315.83
-9290.68
-9265.65
-9241.08
-9217.21
-9194.27
-9172.46
-9151.96
-9132.97
-9115.66
-9100.22
-9086.82
-9075.64
-9066.87
-9060.66
-9057.19
-9056.59
-9058.99
-9064.49
-9073.17
-9085.04
-9100.07
-9118.17
-9139.11
-9162.57
-9188
-9214.61
-9241.17
-9265.81
-9285.64
-9295.93
-9288.6
-9248.84
-9146.96
-8916.51
-8389.11
-7079.22
-7090.86
-8423.94
-8974.11
-9226.61
-9349.51
-9408.96
-9434.35
-9440.22
-9434.39
-9421.35
-9403.85
-9383.62
-9361.77
-9339.09
-9316.11
-9293.23
-9270.74
-9248.88
-9227.87
-9207.9
-9189.12
-9171.73
-9155.87
-9141.73
-9129.46
-9119.23
-9111.2
-9105.52
-9102.35
-9101.81
-9104.02
-9109.07
-9117.02
-9127.89
-9141.65
-9158.19
-9177.31
-9198.68
-9221.79
-9245.85
-9269.66
-9291.4
-9308.2
-9315.39
-9304.92
-9262.05
-9157.11
-8923.67
-8393.36
-7080.62
-7090.91
-8424.16
-8974.7
-9227.84
-9351.69
-9412.39
-9439.32
-9446.96
-9443.08
-9432.13
-9416.81
-9398.82
-9379.24
-9358.84
-9338.12
-9317.45
-9297.12
-9277.36
-9258.36
-9240.29
-9223.31
-9207.57
-9193.23
-9180.44
-9169.34
-9160.09
-9152.84
-9147.71
-9144.85
-9144.36
-9146.37
-9150.94
-9158.14
-9167.97
-9180.4
-9195.33
-9212.57
-9231.79
-9252.51
-9273.96
-9294.98
-9313.8
-9327.6
-9331.77
-9318.34
-9272.62
-9165
-8929.09
-8396.51
-7081.65
-7090.22
-8422.22
-8971.88
-9224.67
-9348.72
-9410.14
-9438.23
-9447.4
-9445.34
-9436.41
-9423.27
-9407.53
-9390.27
-9372.2
-9353.8
-9335.42
-9317.33
-9299.74
-9282.81
-9266.71
-9251.59
-9237.57
-9224.79
-9213.4
-9203.51
-9195.28
-9188.82
-9184.26
-9181.71
-9181.29
-9183.08
-9187.16
-9193.57
-9202.33
-9213.39
-9226.66
-9241.95
-9258.97
-9277.25
-9296.06
-9314.29
-9330.22
-9341.12
-9342.46
-9326.38
-9278.31
-9168.71
-8931.27
-8397.6
-7081.98
-7088.18
-8416.4
-8963.04
-9213.79
-9336.8
-9398.08
-9426.78
-9437.12
-9436.66
-9429.65
-9418.62
-9405.14
-9390.23
-9374.53
-9358.5
-9342.47
-9326.68
-9311.31
-9296.52
-9282.45
-9269.23
-9256.98
-9245.82
-9235.86
-9227.23
-9220.03
-9214.39
-9210.41
-9208.19
-9207.82
-9209.4
-9212.96
-9218.57
-9226.21
-9235.86
-9247.43
-9260.75
-9275.53
-9291.34
-9307.5
-9322.97
-9336.1
-9344.28
-9343.12
-9324.92
-9275.29
-9164.91
-8927.56
-8394.89
-7080.98
-7083.59
-8403.33
-8943.14
-9189.03
-9309.05
-9368.9
-9397.37
-9408.37
-9409.21
-9403.94
-9394.95
-9383.71
-9371.13
-9357.84
-9344.22
-9330.59
-9317.15
-9304.05
-9291.46
-9279.47
-9268.2
-9257.76
-9248.25
-9239.77
-9232.41
-9226.28
-9221.48
-9218.09
-9216.2
-9215.89
-9217.24
-9220.28
-9225.05
-9231.57
-9239.78
-9249.61
-9260.91
-9273.43
-9286.76
-9300.29
-9313.06
-9323.55
-9329.29
-9326.1
-9306.58
-9256.66
-9147.39
-8912.92
-8385.01
-7077.46
-7073.81
-8375.83
-8901.85
-9138.14
-9252.12
-9308.64
-9335.72
-9346.7
-9348.44
-9344.68
-9337.62
-9328.56
-9318.32
-9307.45
-9296.28
-9285.08
-9274.02
-9263.26
-9252.89
-9243.03
-9233.76
-9225.16
-9217.34
-9210.36
-9204.3
-9199.26
-9195.31
-9192.52
-9190.97
-9190.72
-9191.83
-9194.33
-9198.26
-9203.61
-9210.37
-9218.44
-9227.7
-9237.94
-9248.8
-9259.74
-9269.92
-9277.97
-9281.64
-9277.09
-9257.36
-9209.01
-9103.88
-8876.99
-8360.76
-7068.76
-7052.24
-8317.03
-8816.05
-9034.67
-9137.92
-9188.44
-9212.64
-9222.75
-9224.9
-9222.41
-9217.13
-9210.19
-9202.27
-9193.81
-9185.11
-9176.37
-9167.74
-9159.33
-9151.24
-9143.53
-9136.28
-9129.57
-9123.45
-9118
-9113.27
-9109.33
-9106.24
-9104.06
-9102.85
-9102.66
-9103.53
-9105.49
-9108.56
-9112.74
-9118
-9124.3
-9131.51
-9139.47
-9147.88
-9156.29
-9164
-9169.85
-9171.91
-9166.83
-9148.39
-9104.25
-9007.91
-8796.63
-8305.26
-7048.3
-6999.76
-8182.37
-8628.55
-8815.96
-8901.58
-8942.58
-8962.05
-8970.32
-8972.38
-8970.86
-8967.23
-8962.34
-8956.71
-8950.67
-8944.45
-8938.2
-8932.02
-8925.99
-8920.19
-8914.66
-8909.47
-8904.66
-8900.28
-8896.37
-8892.98
-8890.15
-8887.94
-8886.38
-8885.51
-8885.38
-8886
-8887.4
-8889.6
-8892.6
-8896.37
-8900.87
-8906.03
-8911.7
-8917.68
-8923.63
-8929
-8932.92
-8933.89
-8929.23
-8913.87
-8877.45
-8796.78
-8614.63
-8173.93
-6996.94
-6850.47
-7839.55
-8182.35
-8316.94
-8375.62
-8402.93
-8415.74
-8421.2
-8422.68
-8421.89
-8419.77
-8416.87
-8413.5
-8409.89
-8406.15
-8402.4
-8398.68
-8395.06
-8391.57
-8388.25
-8385.13
-8382.24
-8379.6
-8377.25
-8375.21
-8373.52
-8372.19
-8371.25
-8370.73
-8370.65
-8371.02
-8371.87
-8373.19
-8374.99
-8377.26
-8379.96
-8383.05
-8386.45
-8390.03
-8393.57
-8396.73
-8398.97
-8399.31
-8396.01
-8385.68
-8361.12
-8305.41
-8173.98
-7834.48
-6848.77
-6333.93
-6850.47
-6999.75
-7052.21
-7073.73
-7083.45
-7087.95
-7089.87
-7090.4
-7090.16
-7089.47
-7088.51
-7087.39
-7086.18
-7084.94
-7083.69
-7082.45
-7081.24
-7080.07
-7078.97
-7077.93
-7076.96
-7076.08
-7075.3
-7074.62
-7074.05
-7073.61
-7073.3
-7073.12
-7073.1
-7073.22
-7073.5
-7073.95
-7074.55
-7075.3
-7076.2
-7077.24
-7078.37
-7079.56
-7080.73
-7081.78
-7082.5
-7082.57
-7081.37
-7077.7
-7068.9
-7048.36
-6996.96
-6848.77
-6333.36
-1401.82
-2230.04
-2523.67
-2646.13
-2704.15
-2734.28
-2750.89
-2760.35
-2765.77
-2768.78
-2770.32
-2770.92
-2770.93
-2770.55
-2769.92
-2769.14
-2768.27
-2767.36
-2766.44
-2765.54
-2764.67
-2763.85
-2763.09
-2762.41
-2761.81
-2761.31
-2760.9
-2760.61
-2760.43
-2760.37
-2760.42
-2760.59
-2760.87
-2761.24
-2761.67
-2762.14
-2762.58
-2762.89
-2762.95
-2762.53
-2761.3
-2758.72
-2753.84
-2745.02
-2729.15
-2699.84
-2642.7
-2521.18
-2228.53
-1401.32
-2230.05
-3939.62
-4651.04
-4975.71
-5137.08
-5223
-5271.01
-5298.56
-5314.4
-5323.23
-5327.72
-5329.46
-5329.44
-5328.27
-5326.37
-5324.03
-5321.42
-5318.68
-5315.92
-5313.2
-5310.59
-5308.13
-5305.85
-5303.8
-5302.01
-5300.49
-5299.28
-5298.4
-5297.86
-5297.66
-5297.83
-5298.33
-5299.16
-5300.27
-5301.59
-5302.99
-5304.32
-5305.29
-5305.5
-5304.32
-5300.76
-5293.22
-5279
-5253.38
-5207.58
-5124.1
-4965.39
-4643.55
-3935.08
-2228.52
-2523.68
-4651.06
-5610.18
-6074.97
-6315.8
-6447.61
-6522.57
-6566.05
-6591.21
-6605.25
-6612.36
-6615.05
-6614.88
-6612.86
-6609.66
-6605.73
-6601.37
-6596.81
-6592.21
-6587.68
-6583.33
-6579.23
-6575.44
-6572.03
-6569.04
-6566.52
-6564.51
-6563.04
-6562.13
-6561.81
-6562.08
-6562.93
-6564.32
-6566.17
-6568.37
-6570.74
-6572.99
-6574.68
-6575.16
-6573.41
-6567.85
-6555.95
-6533.5
-6493.23
-6421.94
-6294.21
-6057.8
-5597.71
-4643.5
-2521.15
-2646.16
-4975.79
-6075.05
-6629.92
-6927.02
-7093.65
-7190.06
-7246.63
-7279.56
-7297.96
-7307.19
-7310.54
-7310.06
-7307.1
-7302.55
-7297
-7290.89
-7284.5
-7278.06
-7271.73
-7265.65
-7259.93
-7254.64
-7249.87
-7245.7
-7242.18
-7239.37
-7237.32
-7236.06
-7235.61
-7236
-7237.18
-7239.13
-7241.74
-7244.85
-7248.21
-7251.43
-7253.94
-7254.85
-7252.82
-7245.75
-7230.34
-7201.18
-7149.1
-7057.82
-6896.88
-6605.96
-6057.65
-4965.23
-2642.63
-2704.22
-5137.26
-6316.04
-6927.21
-7262.38
-7454.06
-7566.61
-7633.3
-7672.31
-7694.09
-7704.88
-7708.54
-7707.56
-7703.54
-7697.57
-7690.38
-7682.49
-7674.28
-7666.02
-7657.91
-7650.11
-7642.78
-7636.01
-7629.9
-7624.56
-7620.05
-7616.46
-7613.83
-7612.21
-7611.65
-7612.15
-7613.68
-7616.19
-7619.56
-7623.6
-7627.99
-7632.26
-7635.7
-7637.24
-7635.26
-7627.24
-7609.3
-7575.11
-7514.17
-7408.19
-7223.81
-6896.54
-6293.77
-5123.75
-2699.7
-2734.41
-5223.35
-6448.11
-7094.17
-7454.43
-7663.45
-7787.57
-7861.67
-7905.15
-7929.33
-7941.08
-7944.71
-7943.01
-7937.81
-7930.35
-7921.49
-7911.83
-7901.8
-7891.73
-7881.85
-7872.37
-7863.44
-7855.21
-7847.79
-7841.3
-7835.82
-7831.45
-7828.25
-7826.29
-7825.62
-7826.23
-7828.11
-7831.19
-7835.34
-7840.32
-7845.78
-7851.17
-7855.67
-7858.04
-7856.45
-7848.08
-7828.56
-7790.95
-7723.83
-7607.7
-7407.55
-7056.9
-6421.04
-5206.93
-2728.91
-2751.1
-5271.6
-6523.45
-7191.09
-7567.57
-7788.21
-7920.27
-7999.5
-8046.01
-8071.7
-8083.85
-8087.11
-8084.48
-8077.99
-8068.99
-8058.43
-8046.99
-8035.16
-8023.3
-8011.68
-8000.54
-7990.05
-7980.38
-7971.67
-7964.04
-7957.61
-7952.48
-7948.73
-7946.44
-7945.65
-7946.38
-7948.61
-7952.26
-7957.19
-7963.14
-7969.7
-7976.27
-7981.95
-7985.36
-7984.5
-7976.31
-7956.1
-7916.47
-7845.44
-7722.76
-7512.53
-7147.33
-6491.67
-5252.33
-2744.64
-2760.66
-5299.47
-6567.45
-7248.35
-7635.09
-7863.24
-8000.49
-8083.02
-8131.38
-8157.81
-8169.88
-8172.46
-8168.73
-8160.84
-8150.24
-8137.98
-8124.77
-8111.15
-8097.52
-8084.2
-8071.42
-8059.41
-8048.33
-8038.36
-8029.63
-8022.26
-8016.39
-8012.1
-8009.48
-8008.59
-8009.44
-8012.02
-8016.25
-8021.96
-8028.89
-8036.58
-8044.4
-8051.35
-8055.99
-8056.15
-8048.62
-8028.45
-7987.98
-7914.83
-7788.33
-7572.09
-7198.26
-6531.08
-5277.41
-2753.27
-2766.22
-5315.72
-6593.27
-7282.18
-7675.21
-7908
-8048.39
-8132.83
-8182.1
-8208.63
-8220.22
-8221.87
-8216.89
-8207.51
-8195.29
-8181.31
-8166.35
-8150.97
-8135.62
-8120.62
-8106.26
-8092.76
-8080.32
-8069.11
-8059.3
-8051.03
-8044.44
-8039.63
-8036.69
-8035.7
-8036.67
-8039.6
-8044.4
-8050.9
-8058.8
-8067.66
-8076.76
-8085.07
-8091.07
-8092.51
-8086.02
-8066.51
-8026.1
-7952.21
-7823.87
-7604.47
-7225.94
-6552.43
-5290.94
-2757.92
-2769.4
-5325.05
-6608.15
-7301.71
-7698.4
-7933.81
-8075.9
-8161.21
-8210.65
-8236.82
-8247.61
-8248.13
-8241.78
-8230.87
-8217
-8201.32
-8184.62
-8167.53
-8150.49
-8133.87
-8117.97
-8103.02
-8089.26
-8076.86
-8066.01
-8056.87
-8049.57
-8044.25
-8041.01
-8039.92
-8041.02
-8044.29
-8049.66
-8056.93
-8065.82
-8075.83
-8086.25
-8095.98
-8103.46
-8106.35
-8101.2
-8082.81
-8043.16
-7969.51
-7840.77
-7620.16
-7239.51
-6562.98
-5297.66
-2760.23
-2771.14
-5330.16
-6616.27
-7312.33
-7710.91
-7947.59
-8090.33
-8175.76
-8224.86
-8250.3
-8260.05
-8259.3
-8251.51
-8239.03
-8223.53
-8206.16
-8187.78
-8169.01
-8150.34
-8132.16
-8114.76
-8098.43
-8083.38
-8069.84
-8057.98
-8048
-8040.03
-8034.22
-8030.69
-8029.51
-8030.73
-8034.34
-8040.26
-8048.3
-8058.15
-8069.32
-8081.06
-8092.25
-8101.28
-8105.75
-8102.16
-8085.22
-8046.82
-7974.13
-7845.95
-7625.45
-7244.39
-6566.93
-5300.23
-2761.12
-2771.99
-5332.62
-6620.14
-7317.31
-7716.62
-7953.65
-8096.35
-8181.37
-8229.75
-8254.21
-8262.77
-8260.65
-8251.38
-8237.34
-8220.22
-8201.21
-8181.19
-8160.81
-8140.57
-8120.88
-8102.05
-8084.39
-8068.12
-8053.48
-8040.66
-8029.87
-8021.25
-8014.98
-8011.17
-8009.9
-8011.25
-8015.19
-8021.64
-8030.43
-8041.23
-8053.54
-8066.59
-8079.24
-8089.85
-8095.99
-8094.09
-8078.81
-8042
-7970.74
-7843.79
-7624.25
-7243.88
-6566.81
-5300.28
-2761.16
-2772.27
-5333.43
-6621.35
-7318.73
-7718.03
-7954.78
-8096.97
-8181.24
-8228.65
-8251.97
-8259.24
-8255.72
-8244.96
-8229.38
-8210.68
-8190.09
-8168.49
-8146.57
-8124.83
-8103.7
-8083.51
-8064.58
-8047.14
-8031.46
-8017.73
-8006.16
-7996.94
-7990.22
-7986.14
-7984.8
-7986.26
-7990.52
-7997.49
-8007
-8018.72
-8032.13
-8046.47
-8060.57
-8072.76
-8080.59
-8080.45
-8066.97
-8031.95
-7962.42
-7837.11
-7619.08
-7240.07
-6564.22
-5298.78
-2760.67
-2772.21
-5333.21
-6620.9
-7317.93
-7716.74
-7952.84
-8094.21
-8177.51
-8223.82
-8245.9
-8251.84
-8246.92
-8234.69
-8217.61
-8197.39
-8175.28
-8152.19
-8128.8
-8105.64
-8083.15
-8061.68
-8041.54
-8023.01
-8006.34
-7991.75
-7979.46
-7969.66
-7962.52
-7958.19
-7956.78
-7958.34
-7962.9
-7970.37
-7980.56
-7993.16
-8007.64
-8023.22
-8038.73
-8052.48
-8061.98
-8063.62
-8051.99
-8018.85
-7951.22
-7827.78
-7611.58
-7234.34
-6560.19
-5296.39
-2759.88
-2771.93
-5332.37
-6619.44
-7315.79
-7713.82
-7949.05
-8089.43
-8171.64
-8216.77
-8237.6
-8242.21
-8235.91
-8222.27
-8203.75
-8182.1
-8158.55
-8134.04
-8109.27
-8084.78
-8061.02
-8038.34
-8017.08
-7997.52
-7979.92
-7964.53
-7951.56
-7941.22
-7933.69
-7929.12
-7927.64
-7929.31
-7934.15
-7942.09
-7952.93
-7966.36
-7981.86
-7998.62
-8015.48
-8030.72
-8041.86
-8045.25
-8035.46
-8004.22
-7938.55
-7817.08
-7602.86
-7227.58
-6555.38
-5293.51
-2758.92
-2771.54
-5331.18
-6617.44
-7312.92
-7710.02
-7944.24
-8083.57
-8164.65
-8208.59
-8228.17
-8231.5
-8223.88
-8208.89
-8189.02
-8166.01
-8141.13
-8115.31
-8089.25
-8063.52
-8038.57
-8014.78
-7992.48
-7971.97
-7953.52
-7937.37
-7923.77
-7912.93
-7905.04
-7900.25
-7898.71
-7900.48
-7905.58