/*--------------------------------*- C++ -*----------------------------------*\
| =========                 |                                                 |
| \\      /  F ield         | OpenFOAM: The Open Source CFD Toolbox           |
|  \\    /   O peration     | Version:  5.x                                   |
|   \\  /    A nd           | Web:      www.OpenFOAM.org                      |
|    \\/     M anipulation  |                                                 |
\*---------------------------------------------------------------------------*/
FoamFile
{
    version     2.0;
    format      ascii;
    class       volScalarField;
    location    "1.1";
    object      gradTy;
}
// * * * * * * * * * * * * * * * * * * * * * * * * * * * * * * * * * * * * * //

dimensions      [0 -1 0 1 0 0 0];

internalField   nonuniform List<scalar> 
25000
(
5312.33
10909
14555.1
17281.9
19501.2
21405.5
23096.8
24635
26057.5
27389
28646.4
29841.2
30981.2
32071.6
33115.6
34114.4
35068.1
35975.4
36834.3
37641.5
38393.3
39085.1
39712
40268.3
40748.4
41146
41454.9
41668.9
41781.5
41786.8
41678.8
41451.8
41100.5
40620
40005.8
39253.6
38359.6
37319.9
36130.7
34787.6
33284.9
31614.9
29766.2
27720.8
25449.1
22900.6
19983.3
16515.8
12098
5710.76
2588.21
6647.22
9776.16
12294.7
14415
16265.2
17923.4
19439.5
20846.2
22165.7
23413.5
24600.4
25733.7
26818.3
27857.1
28851.3
29800.8
30704.3
31559.7
32363.8
33112.7
33802
34426.6
34981
35459.4
35855.7
36163.7
36377.1
36489.6
36495.2
36388
36162.2
35812.8
35334.7
34723.5
33975.2
33085.8
32051.8
30869.5
29534.6
28042.3
26385.5
24554.1
22532.4
20295.7
17803.4
14987.3
11730.5
7832.33
2985.34
1663.09
4687.86
7296
9544.24
11514.2
13273.9
14873.6
16349
17725.8
19022.2
20251.5
21423
22543.2
23616.3
24644.9
25630
26571.1
27467.1
28315.6
29113.4
29856.6
30540.8
31160.9
31711.4
32186.5
32580.3
32886.4
33098.6
33210.9
33217
33111.2
32888
32542.1
32068.8
31463.8
30723
29842.8
28820
27651.1
26332.7
24860.5
23228.9
21430.1
19452.4
17278.1
14880.4
12219.3
9237.55
5865.22
2057.62
1251.32
3651.32
5854.03
7847.98
9655.86
11308.3
12833.6
14255
15590.8
16854.9
18057.8
19207
20308
21364.3
22377.9
23349.4
24278.2
25162.9
26001.1
26789.5
27524.2
28200.8
28814.1
29358.8
29829
30218.8
30522.1
30732.7
30844.4
30851.3
30747.8
30528.2
30187.7
29721.4
29125.4
28395.7
27529.1
26522.6
25373.4
24078.7
22635.3
21039.4
19285.8
17367
15272.8
12988.7
10496.5
7776.36
4817.01
1641.94
1023.9
3027.94
4929.97
6707.78
8361.99
9903.73
11347.2
12706.4
13993.3
15217.7
16387.5
17508.5
18584.9
19619.3
20613.3
21567
22479.7
23349.5
24174.1
24950.1
25673.5
26339.9
26944.2
27481
27944.7
28329.3
28628.8
28837.1
28948.1
28956.1
28855.3
28640.6
28307
27850
27265.7
26550.6
25701.6
24716.3
23592.3
22327.8
20920.7
19368.9
17669.8
15820
13815.1
11650.2
9320.85
6826.55
4178.01
1409.3
877.902
2611.41
4287.35
5886.32
7402.17
8836.97
10196.9
11489.4
12722
13901.3
15032.6
16120.3
17167.2
18175.3
19145.5
20077.4
20970.1
21821.7
22629.4
23390
24099.4
24753.1
25346.2
25873.3
26328.8
26706.8
27001.5
27206.8
27316.9
27326
27228.7
27019.8
26694.7
26249
25679
24981.6
24154
23194.1
22100.4
20871.7
19507.1
18006.1
16368.2
14593.4
12681.7
10634.4
8454.85
6151.6
3741.88
1256.73
773.942
2308.97
3808.98
5259.22
6652.41
7986.87
9264.43
10488.7
11663.8
12793.9
13882.6
14932.6
15945.8
16923.5
17865.9
18772.4
19641.6
20471.5
21259.3
22001.5
22694.1
23332.7
23912.4
24427.8
24873.5
25243.6
25532.4
25734.1
25842.9
25853.3
25759.9
25557.8
25242.6
24810.1
24256.8
23580
22777.1
21846.7
20787.6
19599.5
18282.5
16837.3
15265.5
13569
11751.2
9817
7774.03
5634.24
3415.8
1144.84
694.168
2074.44
3432.11
4756.33
6040.5
7281.67
8479.52
9635.34
10751.2
11829.4
12872
13880.8
14856.7
15800.3
16711.4
17588.9
18431.3
19236.3
20001.1
20722.1
21395.3
22016.4
22580.4
23082.2
23516.3
23877.2
24159.2
24356.5
24463.7
24475.3
24386.3
24191.9
23887.8
23470.3
22935.9
22282.2
21507.3
20609.7
19589.2
18445.7
17180.4
15795.1
14292.4
12676.2
10951.7
9125.8
7208.13
5211.64
3153.54
1055.78
629.366
1882.74
3120.84
4335.71
5521.86
6676.16
7797.32
8885.33
9940.96
10965.2
11959.2
12923.8
13859.2
14765.4
15641.8
16487.2
17299.6
18076.7
18815.5
19512.6
20163.8
20765
21311.2
21797.4
22218.4
22568.6
22842.6
23034.8
23140
23152.9
23068.6
22882.6
22590.9
22189.8
21676.3
21048.2
20303.9
19442.4
18463.6
17368.4
16158.3
14835.9
13404.9
11870.1
10237.8
8516.07
6715.12
4847.82
2929.98
980.296
574.303
1719.2
2853.41
3971.05
5067.73
6140.53
7187.83
8208.97
9203.88
10172.8
11116.1
12033.8
12925.9
13791.9
14630.6
15440.7
16220.1
16966.4
17676.5
18346.9
18973.7
19552.5
20078.8
20547.5
20953.6
21291.8
21556.7
21743.1
21845.8
21859.9
21780.6
21603.7
21325.3
20942.1
20451.4
19851
19139.8
18317.1
17383.2
16339.2
15187.3
13930.5
12573.1
11120.6
9579.7
7958.96
6268.63
4521
2730.42
913.163
525.792
1574.74
2616.01
3645.21
4658.88
5654.47
6630.33
7585.48
8519.42
9431.88
10322.7
11191.4
12037.7
12860.6
13658.9
14430.9
15174.5
15887.2
16565.8
17207
17806.8
18361.1
18865.3
19314.7
19704.3
20029
20283.8
20463.5
20563.3
20578.3
20504.2
20336.9
20072.8
19708.8
19242.5
18671.9
17996
17214.6
16328.2
15338.2
14247
13058.2
11776.2
10406.8
8956.95
7435.2
5851.48
4217.32
2545.77
851.186
481.789
1443.45
2399.49
3346.61
4282.07
5203.75
6110.08
6999.99
7872.74
8727.75
9564.5
10382.4
11180.6
11958
12713.2
13444.5
14149.6
14826
15470.5
16080
16650.4
17177.9
17658
18086.2
18457.7
18767.6
19011
19183.2
19279.5
19295.4
19226.6
19069.4
18820.5
18476.8
18036.3
17497.2
16858.8
16121
15284.5
14350.9
13323
12204.2
10999.3
9714.04
8355.4
6931.6
5452.11
3927.67
2370.13
792.321
440.925
1321.36
2197.63
3067.23
3928
4778.2
5616.42
6441.61
7252.9
8049.58
8830.91
9596.09
10344.1
11073.8
11783.6
12471.6
13135.7
13773.2
14381.2
14956.5
15495.3
15993.8
16447.8
16852.9
17204.6
17498.3
17729.4
17893.3
17985.5
18001.9
17938.6
17791.9
17558.8
17236.5
16823.2
16317.3
15718.3
15026.1
14241.8
13367
12404.5
11357.8
10231.7
9031.87
7764.99
6438.94
5062.59
3645.87
2199.57
735.214
402.255
1205.71
2006.05
2801.37
3589.97
4370.42
5141.52
5902.25
6651.76
7389.23
8113.84
8824.67
9520.63
10200.4
10862.5
11504.9
12125.5
12721.9
13291
13829.8
14334.7
14802.2
15228.1
15608.4
15938.7
16214.9
16432.4
16587.1
16674.7
16691.4
16633.5
16497.7
16281
15981.1
15596.2
15125.1
14567.2
13922.6
13192.5
12378.6
11483.7
10511.2
9465.7
8352.7
7178.59
5950.74
4677.4
3367.68
2031.4
678.944
365.114
1094.55
1821.65
2544.94
3263.12
3975
4679.57
5375.91
6063.18
6740.57
7407.22
8062.15
8704.24
9332.18
9944.38
10539
11114
11666.8
12194.7
12694.8
13163.8
13598.2
13994.1
14347.9
14655.4
14912.6
15115.5
15260.2
15342.7
15359.3
15306.8
15182.1
14982.5
14705.9
14350.6
13915.5
13400.3
12805.2
12131.3
11380.4
10555
9658.67
8695.67
7671.16
6591.14
5462.45
4292.68
3090.16
1863.77
622.881
329.021
986.469
1642.16
2294.97
2943.87
3587.92
4226.26
4858.07
5482.59
6099.01
6706.49
7304.06
7890.61
8464.84
9025.22
9569.98
10097.1
10604.3
11089
11548.3
11979.3
12378.6
12742.9
13068.4
13351.6
13588.7
13776
13909.7
13986.5
14002.8
13955.7
13842.3
13660.3
13407.6
13082.9
12685.3
12214.3
11670.3
11054.5
10368.4
9614.63
8796.42
7917.77
6983.49
5999.12
4970.91
3905.8
2811.3
1695.43
566.595
293.632
880.45
1465.94
2049.27
2629.62
3206.23
3778.39
4345.4
4906.56
5461.13
6008.29
6547.12
7076.56
7595.36
8102.07
8595.04
9072.37
9531.92
9971.32
10388
10779.1
11141.6
11472.5
11768.3
12025.8
12241.5
12412.1
12534.2
12604.6
12620.3
12578.5
12476.7
12312.6
12084.7
11791.6
11432.4
11007
10515.8
9959.68
9340.33
8660.06
7921.88
7129.48
6287.25
5400.22
4474.05
3514.99
2529.77
1525.55
509.805
258.695
775.754
1291.82
1806.26
2318.44
2827.76
3333.64
3835.47
4332.63
4824.47
5310.21
5789.01
6259.88
6721.66
7173.02
7612.42
8038.14
8448.23
8840.54
9212.7
9562.18
9886.28
10182.2
10446.9
10677.4
10870.6
11023.6
11133.2
11196.8
11211.5
11174.9
11084.7
10939.1
10736.5
10475.8
10156.2
9777.75
9340.66
8845.89
8294.96
7689.98
7033.67
6329.37
5581.01
4793.08
3970.64
3119.21
2244.77
1353.62
452.337
224.033
671.853
1118.94
1564.81
2008.98
2450.98
2890.34
3326.54
3759.06
4187.31
4610.61
5028.2
5439.16
5842.48
6236.94
6621.19
6993.65
7352.62
7696.16
8022.19
8328.47
8612.6
8872.08
9104.31
9306.63
9476.36
9610.82
9707.41
9763.61
9777.05
9745.57
9667.21
9540.33
9363.59
9136.03
8857.07
8526.6
8144.97
7713.01
7232.08
6704.05
6131.35
5516.9
4864.17
4177.09
3460.08
2717.95
1955.89
1179.38
394.105
189.52
568.38
946.702
1324.13
1700.29
2074.83
2447.36
2817.47
3184.72
3548.59
3908.5
4263.79
4613.67
4957.23
5293.43
5621.08
5938.83
6245.19
6538.49
6816.93
7078.59
7321.41
7543.23
7741.82
7914.9
8060.17
8175.35
8258.21
8306.6
8318.49
8292.04
8225.59
8117.74
7967.36
7773.63
7536.1
7254.68
6929.67
6561.83
6152.31
5702.76
5215.25
4692.29
4136.84
3552.27
2942.34
2311.15
1663.08
1002.79
335.091
155.073
465.09
774.72
1083.7
1391.77
1698.63
2004.01
2307.57
2608.95
2907.72
3203.42
3495.46
3783.21
4065.9
4342.65
4612.47
4874.24
5126.7
5368.48
5598.07
5813.89
6014.21
6197.26
6361.19
6504.11
6624.12
6719.34
6787.92
6828.09
6838.18
6816.67
6762.21
6673.63
6550.02
6390.71
6195.34
5963.84
5696.48
5393.89
5057.04
4687.3
4286.38
3856.36
3399.7
2919.15
2417.83
1899.08
1366.52
823.957
275.33
120.641
361.833
602.755
843.223
1083.05
1322.02
1559.92
1796.51
2031.5
2264.56
2495.32
2723.33
2948.07
3168.95
3385.26
3596.22
3800.94
3998.43
4187.62
4367.31
4536.26
4693.11
4836.47
4964.88
5076.86
5170.93
5245.6
5299.44
5331.05
5339.13
5322.49
5280.07
5210.96
5114.46
4990.05
4837.44
4656.6
4447.74
4211.37
3948.25
3659.44
3346.31
3010.5
2653.9
2278.69
1887.3
1482.34
1066.62
643.12
214.9
86.1961
258.53
430.687
602.547
773.981
944.851
1115
1284.26
1452.44
1619.28
1784.54
1947.87
2108.91
2267.22
2422.3
2573.58
2720.42
2862.1
2997.85
3126.81
3248.07
3360.68
3463.61
3555.82
3636.26
3703.84
3757.51
3796.24
3819.01
3824.91
3813.07
3782.73
3733.26
3664.14
3575
3465.64
3336.04
3186.36
3016.96
2828.4
2621.45
2397.08
2156.46
1900.97
1632.18
1351.8
1061.72
763.953
460.62
153.917
51.7304
155.158
258.487
361.647
464.565
567.162
669.346
771.016
872.052
972.315
1071.64
1169.83
1266.66
1361.87
1455.15
1546.16
1634.51
1719.77
1801.47
1879.09
1952.08
2019.87
2081.84
2137.37
2185.81
2226.52
2258.86
2282.2
2295.95
2299.53
2292.45
2274.23
2244.5
2202.94
2149.35
2083.59
2005.66
1915.65
1813.78
1700.39
1575.94
1441.03
1296.36
1142.75
981.148
812.591
638.21
459.215
276.878
92.5188
17.2471
51.7306
86.1822
120.579
154.898
189.113
223.193
257.105
290.809
324.259
357.399
390.165
422.48
454.256
485.392
515.772
545.267
573.731
601.008
626.925
651.299
673.935
694.629
713.172
729.349
742.944
753.745
761.541
766.133
767.334
764.971
758.892
748.969
735.099
717.209
695.26
669.247
639.204
605.204
567.361
525.829
480.804
432.525
381.267
327.343
271.102
212.92
153.201
92.3697
30.8651
-17.2429
-51.718
-86.161
-120.549
-154.859
-189.065
-223.135
-257.038
-290.732
-324.171
-357.3
-390.055
-422.359
-454.124
-485.248
-515.618
-545.102
-573.557
-600.825
-626.735
-651.102
-673.733
-694.425
-712.966
-729.144
-742.742
-753.547
-761.349
-765.95
-767.161
-764.811
-758.747
-748.839
-734.986
-717.114
-695.183
-669.189
-639.165
-605.184
-567.358
-525.843
-480.833
-432.566
-381.318
-327.4
-271.159
-212.973
-153.244
-92.3982
-30.875
-51.7263
-155.146
-258.466
-361.617
-464.527
-567.114
-669.29
-770.95
-871.976
-972.228
-1071.54
-1169.72
-1266.54
-1361.74
-1455.01
-1546.01
-1634.35
-1719.6
-1801.28
-1878.9
-1951.89
-2019.67
-2081.64
-2137.17
-2185.61
-2226.32
-2258.66
-2282.01
-2295.76
-2299.36
-2292.29
-2274.09
-2244.37
-2202.83
-2149.25
-2083.51
-2005.6
-1915.61
-1813.76
-1700.39
-1575.96
-1441.06
-1296.4
-1142.8
-981.204
-812.648
-638.263
-459.258
-276.907
-92.5286
-86.1922
-258.518
-430.667
-602.519
-773.944
-944.805
-1114.95
-1284.2
-1452.36
-1619.2
-1784.44
-1947.76
-2108.79
-2267.09
-2422.16
-2573.43
-2720.26
-2861.93
-2997.67
-3126.63
-3247.88
-3360.48
-3463.41
-3555.62
-3636.06
-3703.65
-3757.32
-3796.05
-3818.83
-3824.74
-3812.91
-3782.59
-3733.13
-3664.03
-3574.9
-3465.57
-3335.99
-3186.32
-3016.94
-2828.4
-2621.46
-2397.1
-2156.5
-1901.02
-1632.23
-1351.85
-1061.77
-763.995
-460.648
-153.926
-120.637
-361.821
-602.736
-843.196
-1083.01
-1321.98
-1559.87
-1796.45
-2031.43
-2264.48
-2495.23
-2723.23
-2947.96
-3168.82
-3385.12
-3596.07
-3800.78
-3998.27
-4187.45
-4367.14
-4536.08
-4692.92
-4836.27
-4964.68
-5076.67
-5170.74
-5245.42
-5299.26
-5330.88
-5338.97
-5322.34
-5279.93
-5210.84
-5114.35
-4989.96
-4837.37
-4656.55
-4447.71
-4211.35
-3948.24
-3659.46
-3346.34
-3010.53
-2653.94
-2278.74
-1887.35
-1482.39
-1066.66
-643.146
-214.909
-155.07
-465.08
-774.703
-1083.68
-1391.73
-1698.59
-2003.96
-2307.51
-2608.88
-2907.65
-3203.33
-3495.37
-3783.11
-4065.78
-4342.53
-4612.34
-4874.09
-5126.55
-5368.32
-5597.91
-5813.71
-6014.03
-6197.08
-6361.01
-6503.93
-6623.94
-6719.16
-6787.75
-6827.92
-6838.02
-6816.53
-6762.08
-6673.51
-6549.91
-6390.62
-6195.27
-5963.78
-5696.44
-5393.86
-5057.04
-4687.31
-4286.4
-3856.4
-3399.74
-2919.2
-2417.88
-1899.13
-1366.56
-823.982
-275.338
-189.517
-568.371
-946.687
-1324.1
-1700.26
-2074.8
-2447.32
-2817.42
-3184.66
-3548.52
-3908.42
-4263.7
-4613.57
-4957.13
-5293.32
-5620.96
-5938.7
-6245.04
-6538.34
-6816.78
-7078.43
-7321.24
-7543.06
-7741.64
-7914.72
-8060
-8175.19
-8258.05
-8306.44
-8318.34
-8291.9
-8225.47
-8117.63
-7967.26
-7773.55
-7536.03
-7254.62
-6929.63
-6561.8
-6152.31
-5702.77
-5215.27
-4692.32
-4136.88
-3552.32
-2942.39
-2311.19
-1663.12
-1002.81
-335.099
-224.03
-671.845
-1118.93
-1564.79
-2008.95
-2450.95
-2890.3
-3326.5
-3759.01
-4187.25
-4610.54
-5028.12
-5439.08
-5842.38
-6236.84
-6621.07
-6993.53
-7352.48
-7696.02
-8022.04
-8328.32
-8612.45
-8871.92
-9104.15
-9306.47
-9476.2
-9610.66
-9707.25
-9763.46
-9776.91
-9745.44
-9667.09
-9540.23
-9363.5
-9135.94
-8857
-8526.55
-8144.93
-7712.98
-7232.07
-6704.06
-6131.37
-5516.93
-4864.2
-4177.13
-3460.12
-2717.99
-1955.93
-1179.4
-394.113
-258.693
-775.747
-1291.81
-1806.24
-2318.42
-2827.74
-3333.6
-3835.43
-4332.59
-4824.41
-5310.15
-5788.94
-6259.8
-6721.57
-7172.92
-7612.32
-8038.03
-8448.12
-8840.41
-9212.57
-9562.05
-9886.14
-10182
-10446.7
-10677.2
-10870.4
-11023.4
-11133.1
-11196.7
-11211.4
-11174.8
-11084.6
-10939
-10736.4
-10475.7
-10156.2
-9777.7
-9340.62
-8845.87
-8294.95
-7689.98
-7033.69
-6329.4
-5581.04
-4793.12
-3970.67
-3119.25
-2244.8
-1353.63
-452.344
-293.63
-880.445
-1465.94
-2049.26
-2629.6
-3206.21
-3778.36
-4345.37
-4906.52
-5461.09
-6008.24
-6547.07
-7076.49
-7595.28
-8101.99
-8594.95
-9072.27
-9531.81
-9971.21
-10387.9
-10779
-11141.5
-11472.4
-11768.2
-12025.7
-12241.4
-12412
-12534.1
-12604.5
-12620.2
-12578.4
-12476.6
-12312.5
-12084.6
-11791.5
-11432.3
-11007
-10515.8
-9959.66
-9340.32
-8660.06
-7921.89
-7129.5
-6287.28
-5400.25
-4474.09
-3515.02
-2529.79
-1525.57
-509.811
-329.02
-986.465
-1642.15
-2294.96
-2943.86
-3587.91
-4226.24
-4858.05
-5482.56
-6098.97
-6706.45
-7304.01
-7890.56
-8464.78
-9025.15
-9569.9
-10097
-10604.2
-11088.9
-11548.2
-11979.2
-12378.5
-12742.8
-13068.3
-13351.5
-13588.6
-13775.9
-13909.6
-13986.4
-14002.7
-13955.6
-13842.2
-13660.2
-13407.6
-13082.9
-12685.2
-12214.2
-11670.3
-11054.4
-10368.4
-9614.63
-8796.42
-7917.79
-6983.51
-5999.14
-4970.94
-3905.82
-2811.32
-1695.45
-566.6
-365.113
-1094.55
-1821.64
-2544.94
-3263.11
-3974.99
-4679.55
-5375.89
-6063.16
-6740.55
-7407.19
-8062.11
-8704.2
-9332.13
-9944.33
-10539
-11113.9
-11666.7
-12194.7
-12694.8
-13163.7
-13598.1
-13994
-14347.8
-14655.3
-14912.5
-15115.4
-15260.1
-15342.6
-15359.2
-15306.7
-15182
-14982.4
-14705.8
-14350.5
-13915.5
-13400.2
-12805.2
-12131.3
-11380.4
-10555
-9658.67
-8695.68
-7671.17
-6591.16
-5462.47
-4292.71
-3090.18
-1863.78
-622.885
-402.255
-1205.71
-2006.05
-2801.37
-3589.97
-4370.42
-5141.51
-5902.24
-6651.74
-7389.21
-8113.82
-8824.64
-9520.6
-10200.4
-10862.4
-11504.9
-12125.5
-12721.8
-13290.9
-13829.7
-14334.7
-14802.1
-15228
-15608.3
-15938.6
-16214.8
-16432.3
-16587
-16674.6
-16691.3
-16633.4
-16497.6
-16280.9
-15981.1
-15596.2
-15125
-14567.1
-13922.6
-13192.5
-12378.6
-11483.6
-10511.2
-9465.7
-8352.71
-7178.61
-5950.76
-4677.42
-3367.69
-2031.41
-678.947
-440.925
-1321.36
-2197.63
-3067.23
-3928
-4778.2
-5616.42
-6441.6
-7252.9
-8049.57
-8830.9
-9596.07
-10344.1
-11073.8
-11783.5
-12471.6
-13135.6
-13773.2
-14381.2
-14956.5
-15495.3
-15993.8
-16447.8
-16852.9
-17204.6
-17498.3
-17729.3
-17893.2
-17985.4
-18001.9
-17938.5
-17791.8
-17558.7
-17236.5
-16823.1
-16317.3
-15718.3
-15026.1
-14241.8
-13367
-12404.4
-11357.8
-10231.7
-9031.87
-7765
-6438.95
-5062.6
-3645.88
-2199.57
-735.216
-481.79
-1443.45
-2399.49
-3346.62
-4282.08
-5203.75
-6110.09
-7000
-7872.74
-8727.75
-9564.5
-10382.4
-11180.6
-11958
-12713.2
-13444.5
-14149.6
-14825.9
-15470.5
-16079.9
-16650.4
-17177.9
-17658
-18086.2
-18457.6
-18767.5
-19011
-19183.2
-19279.5
-19295.3
-19226.6
-19069.4
-18820.4
-18476.8
-18036.2
-17497.2
-16858.8
-16121
-15284.5
-14350.9
-13323
-12204.2
-10999.3
-9714.03
-8355.4
-6931.6
-5452.12
-3927.67
-2370.13
-792.322
-525.794
-1574.74
-2616.01
-3645.22
-4658.89
-5654.48
-6630.34
-7585.5
-8519.43
-9431.89
-10322.7
-11191.5
-12037.7
-12860.6
-13658.9
-14430.9
-15174.5
-15887.2
-16565.8
-17207
-17806.8
-18361.1
-18865.3
-19314.7
-19704.3
-20029
-20283.7
-20463.5
-20563.2
-20578.3
-20504.2
-20336.9
-20072.8
-19708.8
-19242.4
-18671.8
-17996
-17214.6
-16328.1
-15338.1
-14247
-13058.2
-11776.2
-10406.8
-8956.94
-7435.19
-5851.48
-4217.32
-2545.77
-851.186
-574.304
-1719.21
-2853.42
-3971.06
-5067.74
-6140.55
-7187.85
-8208.99
-9203.9
-10172.8
-11116.1
-12033.9
-12926
-13791.9
-14630.6
-15440.7
-16220.1
-16966.4
-17676.5
-18346.9
-18973.7
-19552.5
-20078.8
-20547.5
-20953.6
-21291.8
-21556.7
-21743.1
-21845.8
-21859.9
-21780.6
-21603.7
-21325.3
-20942.1
-20451.3
-19851
-19139.8
-18317.1
-17383.1
-16339.2
-15187.2
-13930.5
-12573.1
-11120.6
-9579.68
-7958.95
-6268.62
-4520.99
-2730.42
-913.163
-629.368
-1882.75
-3120.85
-4335.72
-5521.88
-6676.18
-7797.34
-8885.36
-9940.99
-10965.3
-11959.3
-12923.8
-13859.2
-14765.5
-15641.9
-16487.2
-17299.6
-18076.7
-18815.6
-19512.6
-20163.9
-20765
-21311.2
-21797.5
-22218.4
-22568.6
-22842.6
-23034.8
-23140
-23152.9
-23068.6
-22882.6
-22590.9
-22189.7
-21676.3
-21048.2
-20303.8
-19442.3
-18463.6
-17368.4
-16158.3
-14835.9
-13404.9
-11870.1
-10237.8
-8516.05
-6715.1
-4847.81
-2929.98
-980.294
-694.17
-2074.45
-3432.12
-4756.35
-6040.52
-7281.7
-8479.55
-9635.37
-10751.2
-11829.4
-12872.1
-13880.8
-14856.8
-15800.4
-16711.4
-17588.9
-18431.4
-19236.4
-20001.1
-20722.1
-21395.4
-22016.5
-22580.5
-23082.3
-23516.4
-23877.3
-24159.2
-24356.5
-24463.7
-24475.4
-24386.4
-24192
-23887.9
-23470.3
-22935.9
-22282.2
-21507.2
-20609.7
-19589.1
-18445.7
-17180.4
-15795.1
-14292.4
-12676.2
-10951.7
-9125.77
-7208.11
-5211.62
-3153.53
-1055.77
-773.944
-2308.98
-3808.99
-5259.24
-6652.43
-7986.9
-9264.46
-10488.7
-11663.9
-12794
-13882.6
-14932.6
-15945.9
-16923.6
-17866
-18772.5
-19641.7
-20471.6
-21259.4
-22001.6
-22694.2
-23332.8
-23912.5
-24427.9
-24873.5
-25243.7
-25532.5
-25734.2
-25843
-25853.3
-25759.9
-25557.9
-25242.6
-24810.1
-24256.9
-23580
-22777.1
-21846.7
-20787.6
-19599.5
-18282.5
-16837.3
-15265.4
-13569
-11751.2
-9816.96
-7774
-5634.21
-3415.78
-1144.84
-877.905
-2611.42
-4287.37
-5886.34
-7402.2
-8837
-10196.9
-11489.5
-12722.1
-13901.4
-15032.7
-16120.3
-17167.3
-18175.4
-19145.6
-20077.5
-20970.3
-21821.8
-22629.5
-23390.1
-24099.5
-24753.2
-25346.3
-25873.4
-26328.9
-26707
-27001.6
-27206.9
-27317
-27326.1
-27228.8
-27019.9
-26694.7
-26249
-25679.1
-24981.6
-24154
-23194.1
-22100.4
-20871.7
-19507.1
-18006
-16368.2
-14593.3
-12681.7
-10634.3
-8454.81
-6151.56
-3741.86
-1256.72
-1023.91
-3027.94
-4929.99
-6707.8
-8362.02
-9903.76
-11347.3
-12706.5
-13993.3
-15217.8
-16387.6
-17508.6
-18585
-19619.5
-20613.4
-21567.2
-22479.8
-23349.7
-24174.3
-24950.3
-25673.7
-26340.1
-26944.4
-27481.3
-27945
-28329.6
-28629
-28837.3
-28948.3
-28956.2
-28855.5
-28640.7
-28307.1
-27850.1
-27265.8
-26550.7
-25701.7
-24716.3
-23592.3
-22327.8
-20920.7
-19368.9
-17669.8
-15819.9
-13815.1
-11650.2
-9320.79
-6826.5
-4177.98
-1409.28
-1251.32
-3651.33
-5854.05
-7848
-9655.9
-11308.3
-12833.6
-14255.1
-15590.9
-16855
-18057.9
-19207.1
-20308.2
-21364.5
-22378.1
-23349.5
-24278.4
-25163.2
-26001.4
-26789.8
-27524.5
-28201.1
-28814.4
-29359.1
-29829.3
-30219.1
-30522.4
-30733
-30844.7
-30851.6
-30748
-30528.5
-30187.9
-29721.7
-29125.6
-28395.9
-27529.3
-26522.8
-25373.5
-24078.7
-22635.3
-21039.4
-19285.7
-17367
-15272.7
-12988.7
-10496.5
-7776.3
-4816.97
-1641.93
-1663.09
-4687.87
-7296.01
-9544.27
-11514.3
-13274
-14873.6
-16349.1
-17725.9
-19022.3
-20251.7
-21423.2
-22543.4
-23616.5
-24645.1
-25630.2
-26571.4
-27467.4
-28315.9
-29113.7
-29857
-30541.1
-31161.2
-31711.8
-32186.9
-32580.6
-32886.8
-33099
-33211.2
-33217.4
-33111.6
-32888.3
-32542.4
-32069.1
-31464
-30723.2
-29843
-28820.1
-27651.2
-26332.8
-24860.5
-23228.9
-21430.1
-19452.4
-17278.1
-14880.4
-12219.2
-9237.49
-5865.18
-2057.61
-2588.22
-6647.23
-9776.18
-12294.7
-14415
-16265.2
-17923.5
-19439.6
-20846.2
-22165.8
-23413.6
-24600.5
-25733.9
-26818.5
-27857.3
-28851.5
-29801.1
-30704.6
-31560
-32364.1
-33113.1
-33802.4
-34427
-34981.4
-35459.8
-35856.2
-36164.1
-36377.5
-36490.1
-36495.6
-36388.3
-36162.6
-35813.1
-35335
-34723.8
-33975.4
-33086
-32052
-30869.6
-29534.7
-28042.4
-26385.5
-24554
-22532.4
-20295.6
-17803.3
-14987.3
-11730.4
-7832.28
-2985.33
-5312.34
-10909.1
-14555.1
-17281.9
-19501.2
-21405.5
-23096.9
-24635.1
-26057.6
-27389.1
-28646.5
-29841.3
-30981.4
-32071.9
-33115.8
-34114.7
-35068.4
-35975.7
-36834.6
-37641.8
-38393.6
-39085.5
-39712.4
-40268.7
-40748.8
-41146.4
-41455.3
-41669.3
-41781.9
-41787.2
-41679.2
-41452.1
-41100.8
-40620.3
-40006.1
-39253.9
-38359.8
-37320.1
-36130.8
-34787.6
-33284.9
-31614.9
-29766.2
-27720.8
-25449.1
-22900.6
-19983.2
-16515.8
-12098
-5710.75
2596.3
6670.62
9813.67
12345.2
14477.7
16339.2
18008.2
19534.4
20950.6
22279.2
23535.6
24730.7
25871.8
26963.8
28009.6
29010.4
29966.2
30875.6
31736.6
32545.8
33299.5
33993.1
34621.6
35179.4
35660.8
36059.4
36369.2
36583.8
36696.8
36702.2
36594
36366.5
36014.6
35533.1
34917.7
34164.2
33268.7
32227.6
31037.2
29693.3
28190.9
26523
24679.5
22644.7
20393.8
17886.3
15054
11779.7
7862.8
2995.79
1914.62
5295.4
8118.07
10494.1
12544
14357.3
15995.6
17500.8
18901.7
20218.6
21465.6
22652.8
23787.3
24873.5
25914.1
26910.3
27861.9
28767.6
29625
30431.1
31182
31873
32499.3
33055.1
33534.8
33932.2
34241
34455
34567.9
34573.6
34466.2
34240
33889.8
33410.8
32798.4
32048.7
31157.9
30122.4
28938.8
27603.3
26111.1
24456
22629.2
20617
18398.7
15941.5
13194
10077.7
6483.71
2312.82
1456.33
4196.34
6640.44
8797.92
10717.4
12448.7
14032.1
15498.5
16870.5
18164.7
19393.5
20565.5
21686.9
22761.7
23792.1
24779.2
25722.5
26620.6
27471.1
28270.9
29016
29702
30323.7
30875.6
31352
31746.8
32053.8
32266.7
32379.2
32385.5
32279.5
32055.8
31709.3
31235
30628.8
29886.6
29005
27980.6
26810.4
25491.1
24018.7
22388.4
20593.3
18623.3
16463.7
14092.7
11480.2
8587.24
5376.88
1851.93
1173.52
3446.92
5563.2
7502.29
9276.4
10908.4
12421.5
13835.9
15168
16430.6
17633.3
18783.3
19885.6
20943.6
21959
22932.5
23863.5
24750.3
25590.5
26380.9
27117.5
27795.8
28410.7
28956.8
29428.3
29819.2
30123.3
30334.5
30446.6
30453.6
30349.8
30129.9
29788.6
29321.4
28724.2
27993.1
27125
26117
24966.3
23670.5
22226.6
20631.3
18880.2
16967.1
14883.6
12618.3
10158
7490.72
4615.76
1565.2
989.486
2932.57
4788.12
6533.33
8165.81
9693.6
11128.5
12482.7
13767
14990.6
16160.6
17282.5
18360.3
19396.5
20392.4
21348.2
22262.9
23134.9
23961.5
24739.4
25464.7
26132.8
26738.7
27277
27741.9
28127.5
28427.8
28636.7
28748
28756.1
28655.2
28440
28105.7
27647.8
27062.3
26345.8
25495.3
24508.3
23382.8
22116.9
20709
19157.2
17459.5
15613.3
13615.6
11462.9
9153.46
6689.81
4085.75
1375.92
860.903
2563.02
4213.32
5793.04
7295.32
8721.06
10075.3
11364.6
12595.7
13774.7
14906.6
15995.4
17043.9
18053.8
19025.9
19959.9
20854.7
21708.3
22518
23280.5
23991.7
24647.1
25241.8
25770.3
26227
26606.1
26901.5
27107.4
27217.8
27227
27129.5
26920.2
26594.4
26147.8
25576.6
24877.7
24048.6
23087.1
21991.7
20761.4
19395.6
17894
16256.6
14483.7
12576.2
10536.2
8368.5
6082.6
3696.54
1240.75
764.997
2283.16
3768.82
5207.83
6592.82
7921.71
9195.82
10418.2
11592.8
12723.1
13812.7
14864
15878.9
16858.5
17802.8
18711.3
19582.6
20414.5
21204.3
21948.3
22642.8
23283
23864.2
24381
24827.8
25199
25488.6
25690.8
25800
25810.4
25716.9
25514.4
25198.5
24765
24210.6
23532.3
22727.9
21795.7
20734.9
19545
18226.5
16780.2
15207.9
13512
11696.2
9765.95
7729.43
5599
3392.97
1136.9
689.357
2060.47
3410.18
4728.03
6007.52
7245.55
8441.58
9596.64
10712.6
11791.5
12835.3
13845.5
14823.2
15768.7
16681.7
17561.2
18405.6
19212.7
19979.3
20702.2
21377.2
21999.9
22565.4
23068.5
23503.8
23865.6
24148.3
24346.2
24453.7
24465.5
24376.3
24181.5
23876.7
23458.2
22922.7
22267.6
21491
20591.7
19569.3
18424
17157
15770.1
14266.3
12649.6
10925.5
9101.14
7186.45
5194.5
3142.48
1051.94
626.837
1875.38
3109.26
4320.77
5504.52
6657.34
7777.84
8865.9
9922.13
10947.5
11942.8
12909
13846.2
14754.3
15632.7
16480
17294.4
18073.4
18814.1
19512.9
20165.9
20768.6
21316.3
21803.8
22225.9
22577
22851.8
23044.6
23150
23163
23078.6
22892.2
22599.8
22197.7
21683.1
21053.7
20307.7
19444.4
18463.8
17366.6
16154.5
14830.3
13397.7
11861.6
10228.6
8506.81
6706.61
4840.91
2925.44
978.711
573.095
1715.7
2847.95
3964.11
5059.86
6132.3
7179.75
8201.49
9197.39
10167.6
11112.4
12031.8
12925.7
13793.5
14634.2
15446.2
16227.6
16975.7
17687.6
18359.7
18988.2
19568.6
20096.2
20566.2
20973.4
21312.5
21578.1
21765.1
21868.1
21882.2
21802.8
21625.4
21346.4
20962.3
20470.4
19868.7
19155.9
18331.4
17395.6
16349.6
15195.6
13936.8
12577.4
11123.1
9580.74
7958.89
6267.89
4520.04
2729.65
912.868
525.373
1573.55
2614.23
3643.13
4656.82
5652.78
6629.33
7585.48
8520.65
9434.56
10326.9
11197.5
12045.5
12870.3
13670.4
14444.3
15189.8
15904.2
16584.6
17227.4
17828.8
18384.6
18890.2
19340.7
19731.4
20057
20312.4
20492.7
20592.7
20607.8
20533.6
20365.9
20101.2
19736.3
19268.9
18696.9
18019.5
17236.4
16348
15356
14262.7
13071.7
11787.5
10416
8964.17
7440.63
5855.35
4219.86
2547.19
851.641
481.843
1443.65
2399.95
3347.49
4283.57
5206.08
6113.45
7004.6
7878.74
8735.29
9573.68
10393.3
11193.2
11972.5
12729.5
13462.6
14169.5
14847.6
15493.8
16104.8
16676.8
17205.7
17687.1
18116.4
18488.8
18799.5
19043.7
19216.4
19312.9
19328.9
19260
19102.4
18852.8
18508.4
18066.8
17526.4
16886.5
16147
15308.6
14373
13342.9
12221.9
11014.7
9727.13
8366.23
6940.24
5458.67
3932.25
2372.83
793.21
441.26
1322.38
2199.41
3069.87
3931.62
4782.93
5622.4
6448.95
7261.73
8059.97
8842.94
9609.8
10359.6
11091
11802.5
12492.2
13158
13797.2
14406.8
14983.5
15523.8
16023.6
16478.8
16885
17237.7
17532.1
17763.8
17928.1
18020.7
18037.1
17973.7
17826.6
17592.9
17269.9
16855.6
16348.5
15748
15054.2
14268
13391.3
12426.6
11377.7
10249.3
9047.06
7777.79
6449.33
5070.62
3651.56
2202.96
736.34
402.749
1207.2
2008.58
2805
3594.78
4376.5
5148.93
5911.09
6662.09
7401.11
8127.32
8839.78
9537.39
10218.8
10882.5
11526.6
12148.8
12746.7
13317.3
13857.5
14363.8
14832.4
15259.5
15640.8
15972.1
16248.9
16467
16622.1
16710
16726.8
16668.8
16532.6
16315.4
16014.8
15629
15156.7
14597.4
13951.3
13219.4
12403.6
11506.6
10531.9
9484.15
8368.78
7192.24
5961.92
4686.1
3373.89
2035.12
680.181
365.686
1096.27
1824.55
2549.06
3268.5
3981.7
4687.63
5385.39
6074.13
6753.02
7421.19
8077.67
8721.32
9350.81
9964.55
10560.7
11137.1
11691.4
12220.7
12722.1
13192.4
13627.9
14024.9
14379.6
14687.9
14945.9
15149.3
15294.4
15377.1
15393.8
15341.2
15216.2
15016.1
14738.7
14382.5
13946.4
13429.9
12833.4
12157.8
11405.1
10577.7
9679.32
8714.11
7687.29
6604.89
5473.76
4301.52
3096.49
1867.57
624.146
329.619
988.269
1645.17
2299.23
2949.4
3594.75
4234.42
4867.61
5493.52
6111.36
6720.28
7319.3
7907.29
8482.96
9044.76
9590.92
10119.4
10627.9
11113.9
11574.4
12006.6
12407
12772.2
13098.6
13382.6
13620.3
13808.1
13942.2
14019.1
14035.5
13988.3
13874.7
13692.2
13438.9
13113.4
12714.7
12242.5
11697.2
11079.8
10392.1
9636.47
8816.29
7935.56
6999.1
6012.45
4981.9
3914.4
2817.47
1699.14
567.832
294.22
882.219
1468.9
2053.43
2635
3212.86
3786.29
4354.58
4917.05
5472.93
6021.42
6561.58
7092.34
7612.45
8120.46
8614.71
9093.28
9554.04
9994.6
10412.4
10804.5
11168
11499.8
11796.4
12054.6
12270.9
12441.9
12564.4
12635
12650.7
12608.8
12506.7
12342.3
12113.7
11819.8
11459.8
11033.3
10540.9
9983.34
9362.44
8680.49
7940.5
7146.18
6301.91
5412.77
4484.42
3523.11
2535.6
1529.06
510.975
259.25
777.419
1294.6
1810.17
2323.49
2833.96
3341
3844
4342.36
4835.38
5322.33
5802.33
6274.39
6737.35
7189.87
7630.42
8057.26
8468.43
8861.77
9234.92
9585.33
9910.3
10207
10472.4
10703.5
10897.3
11050.6
11160.6
11224.3
11239.1
11202.4
11112
10966
10762.9
10501.5
10181.1
9801.68
9363.47
8867.45
8315.13
7708.63
7050.68
6344.64
5594.43
4804.58
3980.14
3126.66
2250.12
1356.84
453.412
224.536
673.364
1121.46
1568.35
2013.54
2456.58
2896.97
3334.23
3767.8
4197.11
4621.47
5040.11
5452.13
5856.49
6251.97
6637.22
7010.67
7370.58
7715.03
8041.93
8349.02
8633.92
8894.1
9126.95
9329.81
9499.99
9634.82
9731.67
9788.03
9801.52
9769.96
9691.4
9564.2
9387
9158.84
8879.17
8547.85
8165.23
7732.16
7250
6720.64
6146.49
5530.5
4876.13
4187.34
3468.56
2724.6
1960.68
1182.26
395.066
189.96
569.702
948.908
1327.22
1704.28
2079.71
2453.14
2824.16
3192.32
3557.1
3917.92
4274.12
4624.9
4969.35
5306.43
5634.94
5953.53
6260.69
6554.77
6833.96
7096.32
7339.78
7562.2
7761.32
7934.87
8080.53
8196.03
8279.11
8327.63
8339.56
8313.05
8246.43
8138.3
7987.53
7793.3
7555.15
7272.99
6947.15
6578.35
6167.79
5717.08
5228.32
4704.03
4147.18
3561.14
2949.68
2316.9
1667.22
1005.28
335.923
155.442
466.198
776.568
1086.29
1395.1
1702.72
2008.85
2313.16
2615.29
2914.82
3211.27
3504.07
3792.56
4075.99
4353.46
4623.99
4886.45
5139.58
5382
5612.21
5828.6
6029.46
6213
6377.37
6520.68
6641.01
6736.49
6805.25
6845.53
6855.66
6834.1
6779.49
6690.69
6566.75
6407.03
6211.15
5979.04
5710.99
5407.61
5069.9
4699.2
4297.25
3866.13
3408.29
2926.53
2423.93
1903.87
1369.97
826.032
276.022
120.933
362.709
604.217
845.272
1085.68
1325.25
1563.74
1800.92
2036.51
2270.16
2501.51
2730.11
2955.44
3176.89
3393.77
3605.28