/*--------------------------------*- C++ -*----------------------------------*\
| =========                 |                                                 |
| \\      /  F ield         | OpenFOAM: The Open Source CFD Toolbox           |
|  \\    /   O peration     | Version:  5.x                                   |
|   \\  /    A nd           | Web:      www.OpenFOAM.org                      |
|    \\/     M anipulation  |                                                 |
\*---------------------------------------------------------------------------*/
FoamFile
{
    version     2.0;
    format      ascii;
    class       volScalarField;
    location    "1.1";
    object      gradTx;
}
// * * * * * * * * * * * * * * * * * * * * * * * * * * * * * * * * * * * * * //

dimensions      [0 -1 0 1 0 0 0];

internalField   nonuniform List<scalar> 
25000
(
5312.79
2590.51
1669.02
1262.64
1042.3
904.934
811.051
742.639
690.303
648.608
614.144
584.621
558.41
534.289
511.303
488.676
465.76
442.004
416.931
390.13
361.245
329.976
296.07
259.327
219.596
176.775
130.812
81.7012
29.4855
-25.751
-83.8851
-144.762
-208.204
-274.023
-342.035
-412.084
-484.074
-558.008
-634.058
-712.657
-794.661
-881.606
-976.186
-1083.17
-1211.33
-1378.13
-1622.62
-2047.45
-2981.4
-5709.97
10908.6
6652.26
4703.82
3683.46
3081.28
2690.67
2418.46
2218.03
2063.74
1940.31
1838
1750.18
1672.07
1600.1
1531.45
1463.82
1395.28
1324.19
1249.13
1168.88
1082.38
988.719
887.154
777.082
658.054
529.765
392.059
244.926
88.4903
-76.9916
-251.149
-433.515
-623.553
-820.691
-1024.37
-1234.12
-1449.62
-1670.87
-1898.32
-2133.22
-2377.99
-2637.02
-2917.91
-3233.92
-3608.84
-4087.69
-4762.21
-5837.86
-7823.66
-12098.8
14548.2
9778.45
7316.49
5901.49
5012.78
4413.36
3985.39
3665.36
3416.46
3215.93
3048.84
2904.83
2776.37
2657.71
2544.28
2432.37
2318.81
2200.92
2076.37
1943.13
1799.46
1643.85
1475.08
1292.15
1094.32
881.083
652.189
407.623
147.6
-127.449
-416.899
-719.963
-1035.74
-1363.25
-1701.55
-2049.8
-2407.44
-2774.36
-3151.21
-3539.8
-3943.82
-4369.86
-4829.29
-5341.53
-5940.33
-6686.48
-7695.51
-9202.46
-11726.6
-16527.6
17259.5
12285.2
9560.2
7901.69
6810.99
6050.02
5493.51
5070.22
4736.98
4466.07
4238.78
4041.83
3865.39
3701.84
3545.07
3390.04
3232.45
3068.64
2895.39
2709.91
2509.79
2292.98
2057.75
1802.74
1526.92
1229.6
910.438
569.42
206.859
-176.632
-580.163
-1002.62
-1442.71
-1899.04
-2370.24
-2855.06
-3352.62
-3862.59
-4385.63
-4923.88
-5481.78
-6067.38
-6694.4
-7385.9
-8180.79
-9146.51
-10405.1
-12191.9
-15003.6
-20021.7
19450.9
14381.2
11513.1
9703.32
8473.09
7591.06
6932.09
6422.59
6016.39
5682.91
5400.94
5155.08
4933.67
4727.56
4529.31
4332.69
4132.4
3923.83
3702.95
3466.26
3210.72
2933.7
2633.06
2307.06
1954.38
1574.18
1166.03
729.923
266.282
-224.087
-740.022
-1280.06
-1842.5
-2425.52
-3027.27
-3646.04
-4280.53
-4930.09
-5595.17
-6277.92
-6983.1
-7719.41
-8501.67
-9354.5
-10318.6
-11462.7
-12907.9
-14882
-17861
-22986.6
21311.4
16191.2
13240
11333.7
10006.9
9035.27
8296.19
7716.23
7248.26
6860.29
6529.56
6239.22
5976.26
5730.29
5492.74
5256.38
5014.98
4763.08
4495.92
4209.31
3899.6
3563.67
3198.93
2803.3
2375.22
1913.67
1418.16
888.704
325.842
-269.416
-895.623
-1550.95
-2233.28
-2940.31
-3669.67
-4419.15
-5186.93
-5971.91
-6774.14
-7595.51
-8440.64
-9318.24
-10243.3
-11240.6
-12350.6
-13640.8
-15228.8
-17334.8
-20420.8
-25609
22940.2
17790.6
14788.1
12818.1
11423.7
10385.8
9584.55
8947.76
8428.25
7993.5
7619.91
7289.66
6988.75
6705.82
6431.4
6157.36
5876.66
5583.11
5271.22
4936.2
4573.83
4180.52
3753.26
3289.66
2787.93
2246.89
1665.99
1045.29
385.461
-312.284
-1046.19
-1814.06
-2613.32
-3441.17
-4294.68
-5171.09
-6067.97
-6983.64
-7917.61
-8871.26
-9848.71
-10858.2
-11914.3
-13041
-14277.6
-15689.6
-17390.6
-19594.9
-22755.8
-27985.2
24394.3
19226.3
16190.3
14177.1
12734.6
11647.3
10798
10115.6
9553.53
9079.05
8668.17
8302.47
7967.24
7650.37
7341.61
7032.11
6714.11
6380.73
6025.87
5644.15
5230.85
4781.93
4293.99
3764.36
3191
2572.64
1908.66
1199.19
445.007
-352.422
-1191.04
-2068.26
-2981.04
-3926.05
-4899.8
-5898.86
-6920.18
-7961.39
-9021.33
-10100.7
-11202.8
-12335.3
-13511.7
-14754.8
-16102.5
-17618
-19411.5
-21693
-24910.2
-30169.6
25708.8
20528.6
17469.9
15426.5
13949.1
12824.8
11938.2
11219.4
10622.3
10114.3
9671.27
9274.34
8908.31
8560.47
8219.97
7877.31
7524.11
7152.89
6756.98
6330.46
5868.16
5365.6
4819.06
4225.57
3582.92
2889.7
2145.28
1349.83
504.293
-389.637
-1329.58
-2312.54
-3335.01
-4393.1
-5482.7
-6599.75
-7740.47
-8901.74
-10081.6
-11280
-12499.3
-13746.2
-15033.2
-16381.8
-17828.1
-19433.2
-21304.8
-23649.5
-26911.7
-32194.5
26906.4
21717.7
18643.3
16578.2
15075
13922.7
13007.2
12259.3
11633.4
11097.3
10626.7
10202.4
9808.91
9433.01
9063.34
8689.86
8303.64
7896.66
7461.74
6992.49
6483.28
5929.28
5326.43
4671.52
3962.16
3196.83
2374.91
1496.62
563.073
-423.803
-1461.3
-2546.01
-3673.92
-4840.6
-6041.32
-7271.31
-8526.05
-9801.64
-11095.3
-12406
-13735.3
-15088.7
-16477.5
-17921.9
-19456.6
-21140.7
-23079.8
-25478.1
-28777.8
-34079.9
28002.3
22807.7
19721.8
17640.8
16118.6
14944.9
14006.7
13235.5
12586.2
12026.5
11532.3
11084.2
10666.3
10265.1
9868.8
9466.84
9049.81
8609.23
8137.46
7627.66
7073.81
6470.74
5814.09
5100.42
4327.19
3492.79
2596.61
1638.94
621.052
-454.865
-1585.77
-2767.85
-3996.61
-5267.03
-6573.76
-7911.31
-9274.43
-10658.4
-12059.5
-13475.9
-14908
-16360.4
-17843.1
-19375.2
-20989.7
-22744.2
-24742.8
-27187.7
-30519.5
-35838.1
29006.9
23808
20713.7
18621
17084.3
15894.2
14938.2
14148.4
13479.8
12900.6
12386.3
11917.5
11478.1
11054.2
10633.6
10205.5
9759.89
9287.92
8781.53
8233.48
7637.41
6987.8
6280.05
5510.5
4676.48
3776.32
2809.4
1776.11
677.887
-482.829
-1702.67
-2977.4
-4302.03
-5670.99
-7078.29
-8517.74
-9983.32
-11469.5
-12971.7
-14487.1
-16015.2
-17559.5
-19128.9
-20741.2
-22428.2
-24246.1
-26297.7
-28783.8
-32143.9
-37476.8
29927.5
24725.4
21625
19523.4
17975.7
16772.9
15802.9
14998.1
14313.9
13718.3
13186.9
12700.3
12241.9
11797.8
11355.3
10903.2
10431.3
9930.16
9391.45
8807.56
8171.79
7478.33
6722.36
5900.03
5008.53
4046.16
3012.3
1907.44
733.194
-507.756
-1811.71
-3174.03
-4589.24
-6051.22
-7553.34
-9088.75
-10650.7
-12232.7
-13829.6
-15437.4
-17054.7
-18684.1
-20333.3
-22019.1
-23772.1
-25647.5
-27746.7
-30269.7
-33654.9
-39000.6
30769.2
25564.7
22459.6
20351.4
18795.3
17582.6
16601.6
15784.8
15087.8
14478.6
13932.8
13430.7
12955.8
12493.6
12031.5
11557.6
11061.5
10533.5
9964.83
9347.58
8674.75
7940.29
7139.14
6267.3
5321.86
4301.07
3204.32
2032.23
786.561
-529.754
-1912.69
-3357.22
-4857.4
-6406.56
-7997.48
-9622.64
-11274.5
-12946
-14630.9
-16324.4
-18024.4
-19732.2
-21454.8
-23207.9
-25021.1
-26948.5
-29090.7
-31646.9
-35054.6
-40411.6
31535.5
26329.2
23220.6
21107.4
19544.7
18324.4
17334.7
16508.4
15800.9
15180.4
14622.4
14107
13617.7
13139.6
12659.8
12166.3
11648.2
11095.6
10499.4
9851.32
9144.18
8371.68
7528.56
6610.67
5615.02
4539.82
3384.5
2149.76
837.552
-548.967
-2005.46
-3526.52
-5105.75
-6735.98
-8409.39
-10117.8
-11853.1
-13607.4
-15373.6
-17146.2
-18922.2
-20702
-22491.8
-24306.2
-26174.1
-28148.7
-30329.8
-32915.7
-36343.6
-41710.9
32228.9
27021.2
23910
21792.9
20225.3
18999.1
18002.5
17168.5
16452.5
15822.6
15254.3
14727.7
14225.8
13733.8
13238.3
12727.2
12189.2
11614.3
10992.9
10316.7
9578.07
8770.61
7888.86
6928.55
5886.61
4761.23
3551.87
2259.33
885.721
-565.568
-2089.91
-3681.53
-5333.62
-7038.52
-8787.87
-10572.9
-12384.8
-14215
-16055.7
-17900.7
-19746.1
-21591.6
-23442.4
-25312.4
-27229.8
-29247
-31463
-34075.8
-37521.8
-42898.3
32851
27642.3
24529.1
22409.1
20837.7
19606.8
18604.9
17764.7
17041.8
16404.3
15827.4
15291.2
14778.5
14274.2
13764.9
13238.2
12682.5
12087.5
11443.4
10741.7
9974.51
9135.27
8218.38
7219.43
6135.3
4964.16
3705.51
2360.24
930.624
-579.746
-2165.96
-3821.92
-5540.41
-7313.32
-9131.79
-10986.5
-12868
-14767.2
-16675.5
-18586.1
-20494.2
-22398.9
-24304.7
-26224.9
-28186.7
-30242
-32489.4
-35126.1
-38588.3
-43972.9
33402.9
28193.5
25078.8
22956.6
21382.3
20147.8
19141.7
18296.6
17568.2
16924.3
16340.3
15796
15274
14759.3
14238
13697.5
13126.1
12513.2
11849
11124.4
10331.7
9464
8515.55
7481.89
6359.84
5147.53
3844.54
2451.84
971.821
-591.702
-2233.58
-3947.39
-5725.58
-7559.61
-9440.16
-11357.4
-13301.4
-15262.3
-17231.2
-19200.4
-21164.6
-23122.1
-25077
-27041.7
-29043
-31132.2
-33407.3
-36065.2
-39541.8
-44933.6
33885.4
28675.4
25559.6
23435.7
21859.2
20622
19612.6
18763.7
18030.8
17381.9
16792
16240.8
15711.1
15187.4
14655.7
14103.3
13518.3
12889.8
12207.9
11463.3
10648.1
9755.24
8778.94
7714.63
6559.05
5310.36
3968.15
2533.49
1008.9
-601.636
-2292.73
-4057.7
-5888.65
-7776.68
-9712.06
-11684.5
-13683.6
-15699
-17721.2
-19742
-21755.5
-23759.5
-25757.4
-27761.2
-29797.1
-31915.9
-34215.2
-36891.7
-40380.8
-45778.9
34298.8
29088.4
25971.8
23846.6
22268.5
21029.2
20017.2
19165.4
18429
17775.9
17181.2
16624.5
16088.3
15557.1
15016.7
14454.2
13857.5
13215.7
12518.5
11756.7
10922.1
10007.6
9007.26
7916.44
6731.88
5451.72
4075.59
2604.62
1041.47
-609.74
-2343.42
-4152.62
-6029.2
-7963.91
-9946.69
-11966.9
-14013.5
-16075.9
-18144.1
-20209.3
-22265.3
-24309.3
-26344.2
-28381.5
-30447.1
-32591.4
-34911.5
-37603.8
-41103.6
-46507.1
34643.3
29432.6
26315.4
24189.3
22609.9
21369.1
20355.2
19501.1
18761.9
18105.6
17507.2
16946
16404.5
15867.1
15319.6
14748.7
14142.4
13489.5
12779.6
12003.4
11152.6
10219.9
9199.35
8086.3
6877.4
5570.82
4166.19
2664.73
1069.18
-616.193
-2385.63
-4232
-6146.88
-8120.78
-10143.3
-12203.5
-14290.1
-16391.9
-18498.6
-20601
-22692.5
-24770
-26835.8
-28901.2
-30991.6
-33157
-35494.5
-38200
-41708.7
-47116.8
34919
29708.1
26590.4
24463.6
22883.4
21641.4
20626.2
19770.3
19029.1
18370.4
17769
17204.3
16658.8
16116.5
15563.3
14985.8
14371.8
13710
12989.9
12202.2
11338.3
10391
9354.24
8223.29
6994.81
5666.95
4239.39
2713.37
1091.73
-621.153
-2419.39
-4295.67
-6241.39
-8246.83
-10301.4
-12393.7
-14512.4
-16645.9
-18783.5
-20915.9
-23036
-25140.2
-27230.9
-29318.7
-31429
-33611.4
-35962.8
-38678.9
-42194.8
-47606.4
35125.8
29914.7
26796.8
24669.6
23088.7
21846
20829.7
19972.6
19230
18569.5
17965.9
17398.8
16850.2
16304.3
15746.8
15164.4
14544.6
13876.2
13148.5
12352.1
11478.4
10520.1
9471.12
8326.69
7083.46
5739.56
4294.7
2750.18
1108.87
-624.752
-2444.69
-4343.52
-6312.48
-8341.7
-10420.3
-12536.9
-14679.8
-16837.1
-18998.1
-21153
-23294.5
-25418.9
-27528.2
-29633
-31758.2
-33953.4
-36315.2
-39039.2
-42560.5
-47974.8
35263.7
30052.5
26934.4
24806.9
23225.7
21982.5
20965.6
20107.7
19364.1
18702.5
18097.5
17528.7
16978.1
16429.9
15869.6
15283.9
14660.3
13987.4
13254.6
12452.4
11572.1
10606.5
9549.38
8395.94
7142.83
5788.21
4331.78
2774.87
1120.4
-627.095
-2461.56
-4375.47
-6359.99
-8405.1
-10499.9
-12632.7
-14791.7
-16965
-19141.5
-21311.4
-23467.3
-25605.2
-27727
-29843
-31978.2
-34181.9
-36550.6
-39280
-42804.8
-48220.9
35332.7
30121.5
27003.2
24875.7
23294.2
22050.8
21033.6
20175.3
19431.3
18769
18163.4
17593.8
17042.2
16492.8
15931.1
15343.7
14718.3
14043.1
13307.8
12502.7
11619.1
10649.8
9588.62
8430.66
7172.61
5812.6
4350.38
2787.26
1126.2
-628.252
-2470
-4391.47
-6383.77
-8436.85
-10539.7
-12680.6
-14847.7
-17029
-19213.3
-21390.8
-23553.8
-25698.5
-27826.5
-29948.2
-32088.3
-34296.3
-36668.5
-39400.6
-42927.2
-48344.2
35332.7
30121.5
27003.2
24875.7
23294.2
22050.8
21033.6
20175.3
19431.3
18769.1
18163.4
17593.8
17042.2
16492.8
15931.1
15343.7
14718.3
14043.1
13307.8
12502.7
11619.1
10649.8
9588.62
8430.66
7172.61
5812.6
4350.38
2787.26
1126.2
-628.258
-2470
-4391.47
-6383.78
-8436.86
-10539.7
-12680.6
-14847.7
-17029
-19213.3
-21390.8
-23553.8
-25698.5
-27826.5
-29948.2
-32088.3
-34296.3
-36668.5
-39400.6
-42927.2
-48344.2
35263.7
30052.6
26934.4
24807
23225.7
21982.5
20965.6
20107.7
19364.2
18702.5
18097.6
17528.7
16978.1
16429.9
15869.6
15283.9
14660.3
13987.4
13254.6
12452.4
11572.1
10606.5
9549.39
8395.94
7142.83
5788.2
4331.77
2774.86
1120.39
-627.113
-2461.58
-4375.5
-6360.01
-8405.12
-10499.9
-12632.7
-14791.7
-16965
-19141.5
-21311.4
-23467.3
-25605.2
-27727
-29843
-31978.2
-34181.9
-36550.6
-39280
-42804.8
-48220.9
35125.8
29914.7
26796.8
24669.6
23088.7
21846
20829.7
19972.7
19230
18569.5
17966
17398.8
16850.2
16304.4
15746.9
15164.4
14544.7
13876.2
13148.5
12352.1
11478.4
10520.1
9471.13
8326.69
7083.45
5739.55
4294.69
2750.16
1108.85
-624.781
-2444.73
-4343.56
-6312.52
-8341.74
-10420.4
-12537
-14679.8
-16837.2
-18998.1
-21153
-23294.5
-25419
-27528.2
-29633
-31758.2
-33953.4
-36315.1
-39039.2
-42560.4
-47974.7
34919
29708.1
26590.4
24463.7
22883.4
21641.5
20626.2
19770.3
19029.2
18370.4
17769
17204.4
16658.8
16116.6
15563.3
14985.8
14371.8
13710
12989.9
12202.2
11338.3
10391
9354.25
8223.29
6994.81
5666.94
4239.37
2713.35
1091.7
-621.192
-2419.43
-4295.72
-6241.44
-8246.89
-10301.4
-12393.8
-14512.4
-16646
-18783.6
-20916
-23036
-25140.3
-27230.9
-29318.8
-31429
-33611.4
-35962.8
-38678.9
-42194.7
-47606.3
34643.4
29432.6
26315.4
24189.3
22610
21369.1
20355.3
19501.1
18762
18105.7
17507.2
16946.1
16404.6
15867.2
15319.6
14748.7
14142.5
13489.5
12779.6
12003.4
11152.6
10219.9
9199.36
8086.3
6877.4
5570.8
4166.17
2664.7
1069.14
-616.242
-2385.69
-4232.06
-6146.95
-8120.86
-10143.4
-12203.6
-14290.1
-16392
-18498.6
-20601.1
-22692.6
-24770
-26835.8
-28901.2
-30991.6
-33157
-35494.5
-38200
-41708.7
-47116.7
34298.9
29088.5
25971.8
23846.6
22268.5
21029.2
20017.3
19165.4
18429
17775.9
17181.3
16624.6
16088.4
15557.1
15016.7
14454.2
13857.6
13215.8
12518.6
11756.8
10922.2
10007.6
9007.27
7916.45
6731.87
5451.7
4075.56
2604.59
1041.42
-609.798
-2343.48
-4152.7
-6029.28
-7964
-9946.78
-11967
-14013.6
-16076
-18144.2
-20209.4
-22265.4
-24309.4
-26344.2
-28381.6
-30447.1
-32591.4
-34911.5
-37603.7
-41103.5
-46507
33885.5
28675.5
25559.7
23435.7
21859.3
20622.1
19612.6
18763.8
18030.9
17381.9
16792
16240.9
15711.2
15187.4
14655.8
14103.4
13518.4
12889.9
12207.9
11463.3
10648.1
9755.27
8778.96
7714.63
6559.04
5310.34
3968.12
2533.45
1008.84
-601.703
-2292.81
-4057.78
-5888.74
-7776.78
-9712.17
-11684.7
-13683.7
-15699.2
-17721.3
-19742.1
-21755.6
-23759.6
-25757.5
-27761.2
-29797.1
-31915.9
-34215.2
-36891.6
-40380.7
-45778.8
33403
28193.6
25078.9
22956.6
21382.3
20147.9
19141.7
18296.7
17568.3
16924.4
16340.4
15796.1
15274.1
14759.4
14238
13697.5
13126.2
12513.3
11849
11124.5
10331.8
9464.03
8515.57
7481.9
6359.83
5147.51
3844.51
2451.79
971.759
-591.777
-2233.67
-3947.49
-5725.69
-7559.72
-9440.28
-11357.6
-13301.5
-15262.5
-17231.3
-19200.5
-21164.7
-23122.2
-25077.1
-27041.8
-29043
-31132.2
-33407.3
-36065.1
-39541.7
-44933.5
32851
27642.4
24529.2
22409.1
20837.8
19606.9
18604.9
17764.8
17041.9
16404.4
15827.5
15291.2
14778.5
14274.3
13765
13238.3
12682.6
12087.5
11443.5
10741.7
9974.55
9135.3
8218.4
7219.44
6135.3
4964.14
3705.47
2360.19
930.556
-579.828
-2166.06
-3822.03
-5540.53
-7313.45
-9131.93
-10986.7
-12868.2
-14767.3
-16675.6
-18586.2
-20494.3
-22399
-24304.8
-26224.9
-28186.7
-30242
-32489.3
-35126
-38588.2
-43972.8
32228.9
27021.3
23910.1
21793
20225.4
18999.1
18002.6
17168.5
16452.6
15822.7
15254.4
14727.8
14225.9
13733.9
13238.4
12727.2
12189.3
11614.4
10993
10316.7
9578.12
8770.64
7888.88
6928.56
5886.61
4761.2
3551.83
2259.28
885.65
-565.655
-2090.01
-3681.65
-5333.75
-7038.66
-8788.01
-10573.1
-12385
-14215.1
-16055.9
-17900.9
-19746.2
-21591.7
-23442.5
-25312.5
-27229.9
-29247
-31463
-34075.7
-37521.7
-42898.1
31535.6
26329.2
23220.7
21107.4
19544.8
18324.5
17334.8
16508.5
15801
15180.5
14622.5
14107.1
13617.8
13139.7
12659.9
12166.4
11648.3
11095.7
10499.4
9851.38
9144.24
8371.72
7528.59
6610.68
5615.02
4539.79
3384.46
2149.7
837.477
-549.059
-2005.57
-3526.64
-5105.89
-6736.12
-8409.55
-10118
-11853.3
-13607.5
-15373.7
-17146.4
-18922.3
-20702.2
-22491.9
-24306.3
-26174.1
-28148.7
-30329.7
-32915.6
-36343.5
-41710.7
30769.3
25564.7
22459.7
20351.5
18795.3
17582.7
16601.7
15784.9
15087.9
14478.7
13932.9
13430.8
12955.9
12493.8
12031.6
11557.7
11061.6
10533.6
9964.91
9347.65
8674.81
7940.34
7139.17
6267.32
5321.86
4301.04
3204.28
2032.17
786.483
-529.849
-1912.8
-3357.35
-4857.54
-6406.71
-7997.64
-9622.81
-11274.7
-12946.2
-14631
-16324.6
-18024.6
-19732.4
-21455
-23208
-25021.1
-26948.5
-29090.7
-31646.8
-35054.4
-40411.4
29927.6
24725.4
21625
19523.5
17975.8
16773
15803
14998.2
14314
13718.4
13187
12700.4
12242
11797.9
11355.4
10903.3
10431.4
9930.25
9391.54
8807.64
8171.85
7478.38
6722.39
5900.04
5008.53
4046.14
3012.26
1907.38
733.116
-507.853
-1811.82
-3174.16
-4589.39
-6051.38
-7553.51
-9088.92
-10650.8
-12232.9
-13829.7
-15437.5
-17054.9
-18684.2
-20333.4
-22019.2
-23772.2
-25647.5
-27746.6
-30269.6
-33654.7
-39000.4
29007
23808
20713.8
18621.1
17084.4
15894.3
14938.3
14148.5
13479.9
12900.7
12386.4
11917.6
11478.2
11054.3
10633.8
10205.6
9759.99
9288.02
8781.62
8233.56
7637.47
6987.85
6280.08
5510.52
4676.48
3776.3
2809.36
1776.05
677.809
-482.926
-1702.78
-2977.53
-4302.18
-5671.15
-7078.46
-8517.92
-9983.51
-11469.7
-12971.9
-14487.3
-16015.4
-17559.6
-19129
-20741.3
-22428.2
-24246.1
-26297.6
-28783.7
-32143.7
-37476.7
28002.4
22807.7
19721.9
17640.9
16118.6
14945
14006.7
13235.6
12586.3
12026.6
11532.4
11084.3
10666.4
10265.2
9868.92
9466.95
9049.92
8609.33
8137.55
7627.74
7073.88
6470.79
5814.13
5100.44
4327.19
3492.78
2596.57
1638.88
620.976
-454.961
-1585.89
-2767.99
-3996.76
-5267.2
-6573.93
-7911.49
-9274.61
-10658.6
-12059.7
-13476
-14908.2
-16360.5
-17843.3
-19375.3
-20989.8
-22744.2
-24742.7
-27187.6
-30519.4
-35837.9
26906.4
21717.8
18643.3
16578.2
15075.1
13922.8
13007.3
12259.4
11633.5
11097.4
10626.8
10202.5
9809.02
9433.13
9063.45
8689.97
8303.75
7896.76
7461.83
6992.57
6483.35
5929.34
5326.48
4671.55
3962.17
3196.82
2374.88
1496.57
562.999
-423.896
-1461.41
-2546.13
-3674.07
-4840.76
-6041.49
-7271.49
-8526.23
-9801.83
-11095.5
-12406.2
-13735.4
-15088.8
-16477.6
-17922
-19456.7
-21140.7
-23079.7
-25478
-28777.6
-34079.7
25708.8
20528.6
17470
15426.6
13949.1
12824.9
11938.3
11219.5
10622.4
10114.4
9671.38
9274.45
8908.42
8560.59
8220.08
7877.42
7524.22
7152.99
6757.07
6330.55
5868.23
5365.66
4819.11
4225.6
3582.93
2889.69
2145.25
1349.78
504.223
-389.726
-1329.69
-2312.67
-3335.15
-4393.25
-5482.87
-6599.93
-7740.65
-8901.93
-10081.8
-11280.2
-12499.5
-13746.4
-15033.3
-16381.9
-17828.1
-19433.2
-21304.8
-23649.4
-26911.6
-32194.3
24394.3
19226.3
16190.4
14177.2
12734.6
11647.4
10798.1
10115.7
9553.62
9079.14
8668.28
8302.58
7967.35
7650.48
7341.72
7032.22
6714.21
6380.83
6025.97
5644.24
5230.93
4781.99
4294.04
3764.39
3191.02
2572.63
1908.64
1199.14
444.943
-352.506
-1191.15
-2068.38
-2981.18
-3926.2
-4899.96
-5899.03
-6920.36
-7961.58
-9021.51
-10100.8
-11203
-12335.4
-13511.8
-14754.9
-16102.6
-17618
-19411.5
-21692.9
-24910.1
-30169.4
22940.2
17790.7
14788.1
12818.2
11423.8
10385.8
9584.63
8947.84
8428.34
7993.59
7620.01
7289.76
6988.85
6705.93
6431.51
6157.47
5876.77
5583.21
5271.32
4936.28
4573.9
4180.58
3753.31
3289.7
2787.95
2246.89
1665.97
1045.26
385.403
-312.361
-1046.29
-1814.17
-2613.45
-3441.31
-4294.84
-5171.25
-6068.14
-6983.81
-7917.79
-8871.43
-9848.88
-10858.4
-11914.5
-13041.1
-14277.7
-15689.6
-17390.6
-19594.8
-22755.7
-27985
21311.4
16191.3
13240.1
11333.8
10007
9035.33
8296.25
7716.31
7248.35
6860.38
6529.66
6239.32
5976.36
5730.39
5492.84
5256.48
5015.08
4763.18
4496.01
4209.39
3899.67
3563.73
3198.98
2803.33
2375.24
1913.67
1418.14
888.671
325.791
-269.485
-895.709
-1551.05
-2233.4
-2940.44
-3669.81
-4419.3
-5187.09
-5972.07
-6774.31
-7595.68
-8440.8
-9318.39
-10243.4
-11240.7
-12350.6
-13640.8
-15228.7
-17334.7
-20420.7
-25608.8
19450.9
14381.2
11513.2
9703.36
8473.13
7591.11
6932.15
6422.66
6016.46
5682.99
5401.03
5155.17
4933.76
4727.65
4529.4
4332.79
4132.49
3923.91
3703.03
3466.34
3210.78
2933.76
2633.11
2307.09
1954.4
1574.19
1166.02
729.897
266.24
-224.145
-740.096
-1280.15
-1842.61
-2425.64
-3027.39
-3646.18
-4280.68
-4930.24
-5595.32
-6278.07
-6983.25
-7719.54
-8501.79
-9354.6
-10318.7
-11462.8
-12907.9
-14881.9
-17860.9
-22986.5
17259.6
12285.2
9560.23
7901.72
6811.02
6050.06
5493.56
5070.28
4737.04
4466.14
4238.85
4041.91
3865.47
3701.92
3545.15
3390.12
3232.53
3068.71
2895.46
2709.97
2509.85
2293.03
2057.79
1802.77
1526.94
1229.61
910.432
569.4
206.825
-176.678
-580.224
-1002.69
-1442.79
-1899.13
-2370.34
-2855.18
-3352.74
-3862.72
-4385.76
-4924
-5481.9
-6067.49
-6694.51
-7385.98
-8180.85
-9146.54
-10405.1
-12191.9
-15003.5
-20021.6
14548.2
9778.47
7316.51
5901.52
5012.8
4413.39
3985.43
3665.4
3416.5
3215.98
3048.89
2904.89
2776.43
2657.76
2544.34
2432.43
2318.87
2200.98
2076.43
1943.18
1799.5
1643.89
1475.11
1292.18
1094.33
881.088
652.184
407.608
147.575
-127.484
-416.944
-720.018
-1035.8
-1363.32
-1701.63
-2049.89
-2407.53
-2774.46
-3151.3
-3539.9
-3943.91
-4369.95
-4829.37
-5341.59
-5940.37
-6686.5
-7695.49
-9202.42
-11726.5
-16527.6
10908.6
6652.27
4703.83
3683.47
3081.3
2690.69
2418.49
2218.05
2063.76
1940.34
1838.03
1750.21
1672.11
1600.14
1531.49
1463.85
1395.31
1324.22
1249.16
1168.91
1082.4
988.741
887.171
777.095
658.061
529.767
392.055
244.916
88.474
-77.0141
-251.178
-433.549
-623.592
-820.735
-1024.42
-1234.17
-1449.68
-1670.92
-1898.38
-2133.28
-2378.05
-2637.07
-2917.95
-3233.95
-3608.87
-4087.69
-4762.19
-5837.84
-7823.62
-12098.8
5312.8
2590.51
1669.02
1262.65
1042.3
904.941
811.058
742.647
690.312
648.618
614.155
584.632
558.421
534.301
511.315
488.687
465.771
442.014
416.94
390.138
361.253
329.982
296.075
259.331
219.598
176.775
130.809
81.6969
29.4792
-25.7592
-83.8953
-144.774
-208.218
-274.038
-342.051
-412.102
-484.092
-558.027
-634.077
-712.676
-794.679
-881.623
-976.2
-1083.18
-1211.33
-1378.13
-1622.61
-2047.44
-2981.38
-5709.95
2596.76
1916.92
1462.28
1184.88
1007.93
888.008
802.206
737.958
687.938
647.601
613.962
584.952
559.061
535.138
512.269
489.704
466.812
443.052
417.954
391.11
362.17
330.832
296.846
260.014
220.184
177.255
131.175
81.942
29.5974
-25.7721
-84.0413
-145.052
-208.623
-274.559
-342.668
-412.783
-484.787
-558.658
-634.522
-712.741
-794.047
-879.756
-972.135
-1075.05
-1195.22
-1344.67
-1545.82
-1841.73
-2308.87
-2995
6670.16
5300.45
4212.34
3479.15
2986.06
2642.49
2392.95
2204.44
2056.86
1937.41
1837.52
1751.2
1674.04
1602.66
1534.35
1466.9
1398.43
1327.33
1252.2
1171.82
1085.15
991.287
889.483
779.143
659.818
531.206
393.153
245.651
88.8288
-77.0522
-251.615
-434.383
-624.807
-822.298
-1026.27
-1236.22
-1451.77
-1672.84
-1899.75
-2133.53
-2376.27
-2631.69
-2906.21
-3210.6
-3563.14
-3995.18
-4560.81
-5349.45
-6475.02
-7863.59
9806.78
8120.37
6660.98
5610.79
4871.14
4339.66
3945.71
3644.05
3405.68
3211.45
3048.23
2906.65
2779.71
2662
2549.13
2437.51
2324.07
2206.16
2081.48
1948.03
1804.07
1648.12
1478.96
1295.58
1097.25
883.479
654.008
408.829
148.163
-127.55
-417.674
-721.409
-1037.83
-1365.93
-1704.72
-2053.32
-2411.06
-2777.7
-3153.69
-3540.52
-3941.29
-4361.65
-4811.12
-5305.5
-5870.75
-6549.37
-7409.65
-8552.05
-10073.7
-11791.5
12322.8
10484.6
8813.92
7556.15
6636.81
5957.18
5442.75
5042.77
4723.13
4460.46
4238.3
4044.59
3870.19
3707.9
3551.89
3397.25
3239.81
3075.95
2902.52
2716.74
2516.23
2298.94
2063.16
1807.52
1531.01
1232.95
912.976
571.103
207.644
-176.773
-581.248
-1004.64
-1445.63
-1902.8
-2374.69
-2860.02
-3357.74
-3867.38
-4389.31
-4925.24
-5478.91
-6057.12
-6671.33
-7340.24
-8093.69
-8978.64
-10066.3
-11452.8
-13210.3
-15092.4
14427.2
12510.1
10716.3
9323.99
8277.21
7484.71
6873.26
6390.64
6000.38
5676.7
5400.89
5158.93
4940.01
4735.44
4538.1
4341.97
4141.84
3933.2
3712.09
3475.01
3218.96
2941.34
2639.98
2313.18
1959.62
1578.46
1169.28
732.077
267.287
-224.271
-741.415
-1282.66
-1846.27
-2430.36
-3033.02
-3652.45
-4287.21
-4936.41
-5600.21
-6280.23
-6980.4
-7708
-8475.33
-9302.2
-10219.6
-11274.9
-12537.2
-14094.3
-15999.3
-17972.5
16244.9
14283.2
12414.7
10933.8
9797.08
8919.89
8231.86
7681.28
7230.99
6853.99
6530.23
6244.35
5984.23
5740.03
5503.53
5267.71
5026.49
4774.5
4507.04
4219.95
3909.62
3572.95
3207.34
2810.74
2381.59
1918.88
1422.11
891.322
327.062
-269.642
-897.322
-1554.12
-2237.87
-2946.22
-3676.72
-4427.04
-5195.21
-5979.86
-6780.71
-7599.06
-8438.61
-9306.55
-10215.2
-11184.2
-12244.1
-13440.8
-14839.4
-16520.5
-18524.2
-20554.1
17851.2
15862.5
13946.4
12406
11205.2
10264.7
9516.8
8911.07
8410.48
7987.59
7621.58
7296.21
6998.43
6717.46
6444.19
6170.74
5890.22
5596.54
5284.29
4948.7
4585.6
4191.41
3763.14
3298.4
2795.41
2253
1670.63
1048.37
386.892
-312.553
-1048.19
-1817.79
-2618.74
-3448.15
-4303.04
-5180.48
-6077.88
-6993.3
-7925.86
-8876.3
-9847.81
-10847
-11885.7
-12982.6
-14167.1
-15482.6
-16990.8
-18766.2
-20841.1
-22909.8
19293
17287
15339.4
13757.8
12511
11522.9
10728.4
10078.2
9535.9
9073.92
8671.09
8310.59
7978.7
7663.92
7356.39
7047.51
6729.68
6396.13
6040.84
5658.47
5244.33
4794.4
4305.3
3774.36
3199.57
2579.63
1913.97
1202.7
446.644
-352.734
-1193.34
-2072.55
-2987.28
-3934.1
-4909.44
-5909.75
-6931.76
-7972.84
-9031.39
-10107.4
-11203.4
-12325.2
-13483.4
-14695.9
-15990.2
-17407.5
-19006.4
-20856.9
-22986.3
-25083.9
20601
18583.3
16613.9
15003.3
13722.7
12698.7
11867.9
11182.1
10605.3
10110.3
9675.62
9284.13
8921.6
8575.96
8236.73
7894.71
7541.66
7170.22
6773.81
6346.55
5883.3
5379.61
4831.76
4236.81
3592.54
2897.55
2151.24
1353.78
506.13
-389.991
-1332.17
-2317.38
-3342.04
-4402.19
-5493.64
-6612.14
-7753.74
-8915.01
-10093.6
-11288.7
-12501.7
-13737.7
-15006.1
-16323.4
-17715.5
-19221.6
-20897.5
-22810.2
-24983.7
-27104.2
21795.3
19769.4
17784.7
16153.1
14847.5
13796.2
12936.9
12222.5
11617.5
11094.6
10632.6
10213.9
9824.05
9450.41
9082.05
8709.21
8323.11
7915.87
7480.37
7010.29
6500.03
5944.77
5340.48
4683.94
3972.79
3205.52
2381.5
1500.99
565.104
-424.199
-1464.18
-2551.37
-3681.74
-4850.73
-6053.52
-7285.19
-8541
-9816.76
-11109.2
-12416.7
-13739.7
-15082
-16452.1
-17865
-19345
-20929.5
-22672.3
-24638.1
-26848.5
-28988.1
22889.8
20858.1
18862.3
17215.2
15890.9
14818.6
13937.1
13199.7
12571.4
12025.3
11539.8
11097.5
10683.3
10284.4
9889.42
9488.07
9071.14
8630.25
8157.83
7647.11
7092.11
6487.66
5829.43
5113.99
4338.8
3502.28
2603.81
1643.71
623.27
-455.301
-1588.93
-2773.74
-4005.18
-5278.16
-6587.19
-7926.65
-9291.04
-10675.3
-12075.4
-13488.7
-14914.6
-16355.9
-17819.8
-19320.1
-20879.7
-22534.5
-24336.3
-26348.5
-28590.8
-30746.7
23894.2
21858.3
19854.3
18195.7
16857.2
15768.7
14869.6
14113.8
13466.5
12900.9
12395.5
11932.5
11496.9
11075.3
10656.1
10228.6
9783.01
9310.68
8803.57
8254.52
7657.19
7006.09
6296.63
5525.16
4689.03
3786.58
2817.18
1781.27
680.284
-483.303
-1706.08
-2983.78
-4311.33
-5683.08
-7092.91
-8534.49
-10001.6
-11488.3
-12989.6
-14502
-16024
-17557.2
-19107.8
-20688.3
-22320.3
-24038.4
-25893
-27946.2
-30216.8
-32386.9
24815.3
22776.2
20766.2
19098.9
17749.5
16648.5
15735.6
14965
14302.1
13720.2
13197.8
12717
12262.5
11820.7
11379.5
10928
10456.1
9954.57
9415.08
8830.11
8192.98
7497.93
6740.12
5915.74
5021.98
4057.15
3020.64
1912.97
735.763
-508.266
-1815.38
-3180.88
-4599.24
-6064.23
-7569.11
-9106.86
-10670.5
-12253.3
-13849.4
-15454.3
-17065.7
-18684.1
-20314.6
-21968.6
-23666.6
-25442
-27344.3
-29434.3
-31729.9
-33912.7
25657.8
23616.4
21601.8
19927.9
18570.2
17459.5
16535.7
15753.2
15077.6
14482.1
13945.3
13449.1
12978
12518.2
12057.4
11584.1
11087.9
10559.5
9989.96
9371.55
8697.27
7961.11
7158.02
6283.99
5336.15
4312.74
3213.19
2038.11
789.292
-530.297
-1916.6
-3364.52
-4868.06
-6420.45
-8014.34
-9642.05
-11295.8
-12968.2
-14652.6
-16343.4
-18037.5
-19734.5
-21438.5
-23159.8
-24918
-26745.5
-28690.8
-30813.9
-33132
-35326.2
26425.2
24382.1
22364
20685.1
19321
18202.7
17270.2
16478.2
15792.2
15185.5
14636.5
14127.1
13641.5
13165.8
12687.3
12194.3
11676.2
11123
10525.9
9876.61
9167.95
8393.65
7548.47
6628.29
5630.1
4552.14
3393.86
2155.97
840.436
-549.54
-2009.59
-3534.23
-5117.03
-6750.68
-8427.28
-10138.5
-11875.9
-13631.2
-15397
-17167.2
-18937.4
-20706.5
-22477.7
-24260.5
-26073.5
-27948.2
-29932.4
-32085.3
-34423.6
-36628
27119.8
25075.3
23054.6
21371.9
20002.9
18878.6
17939.4
17139.7
16445.2
15829.2
15270
14749.3
14251.2
13761.5
13267.3
12756.6
12218.6
11643.1
11020.7
10343.2
9602.99
8793.64
7909.74
6947.02
5902.43
4774.15
3561.69
2265.84
888.748
-566.168
-2094.24
-3689.63
-5345.47
-7053.99
-8806.7
-10594.7
-12408.9
-14240.3
-16080.9
-17923.5
-19763.3
-21598.1
-23430.5
-25269
-27131.6
-29048.9
-31068.1
-33247.9
-35604.3
-37817.9
27743.1
25697.6
23674.9
21989.3
20616.5
19487.7
18543.1
17737.2
17035.9
16412.2
15844.4
15314.1
14805.2
14303.3
13795.3
13269
12713.2
12117.5
11472.4
10769.3
10000.5
9159.28
8240.13
7238.68
6151.79
4977.63
3715.74
2367.03
933.782
-580.37
-2170.48
-3830.37
-5552.79
-7329.49
-9151.5
-11009.3
-12893.3
-14793.9
-16702.2
-18610.5
-20513.2
-22407.4
-24294.9
-26183.6
-28090.7
-30046.2
-32096.8
-34300.5
-36673.2
-38895
28296.2
26250
24225.8
22538
21162.3
20029.9
19081.1
18270.4
17563.5
16933.6
16358.6
15820.2
15302
14789.6
14269.5
13729.4
13157.9
12544.4
11879.1
11153.1
10358.7
9488.88
8538.1
7501.84
6376.92
5161.5
3855.16
2458.88
975.099
-592.347
-2238.26
-3956.16
-5738.43
-7576.4
-9460.66
-11381.2
-13327.8
-15290.3
-17259.3
-19226.4
-21185.2
-23132.5
-25069.1
-27002.4
-28949.1
-30938.6
-33016.9
-35241.9
-37628.9
-39858
28779.8
26733
24707.7
23018.2
21640.3
20505.2
19553.1
18738.6
18027.3
17392.2
16811.4
16266.2
15740.2
15218.8
14688.3
14136.4
13551.2
12922
12238.9
11492.9
10675.9
9780.91
8802.2
7735.2
6576.67
5324.77
3979.1
2540.76
1012.28
-602.298
-2297.56
-4066.75
-5901.91
-7794.03
-9733.26
-11709.2
-13711
-15728.1
-17750.5
-19769.3
-21777.6
-23771.4
-25751.2
-27723.7
-29705
-31724.1
-33826.8
-36070.4
-38469.9
-40705.3
29194.1
27146.9
25120.8
23430
22050.5
20913.3
19958.7
19141.2
18426.4
17787.2
17201.6
16650.8
16118.4
15589.4
15050.3
14488.1
13891.3
13248.8
12550.4
11787.1
10950.6
10034
9031.13
7937.56
6749.97
5466.51
4086.83
2612.09
1044.94
-610.417
-2348.37
-4161.92
-6042.83
-7981.76
-9968.49
-11992.2
-14041.7
-16106
-18174.5
-20237.9
-22288.7
-24322.6
-26339.4
-28345.6
-30356.7
-32401.3
-34524.8
-36784.2
-39194.6
-41435.3
29539.4
27491.9
25465.2
23773.5
22392.8
21254.1
20297.5
19477.8
18760.2
18117.8
17528.4
16973.1
16435.5
15900.3
15353.9
14783.5
14176.9
13523.2
12812.2
12034.4
11181.7
10246.8
9223.74
8107.87