/*--------------------------------*- C++ -*----------------------------------*\
| =========                 |                                                 |
| \\      /  F ield         | OpenFOAM: The Open Source CFD Toolbox           |
|  \\    /   O peration     | Version:  5.x                                   |
|   \\  /    A nd           | Web:      www.OpenFOAM.org                      |
|    \\/     M anipulation  |                                                 |
\*---------------------------------------------------------------------------*/
FoamFile
{
    version     2.0;
    format      ascii;
    class       volScalarField;
    location    "1.1";
    object      T;
}
// * * * * * * * * * * * * * * * * * * * * * * * * * * * * * * * * * * * * * //

dimensions      [0 0 0 1 0 0 0];

internalField   nonuniform List<scalar> 
25000
(
300.738
301.387
301.774
302.055
302.279
302.471
302.641
302.796
302.939
303.072
303.198
303.318
303.432
303.541
303.646
303.746
303.841
303.932
304.018
304.099
304.174
304.243
304.306
304.362
304.41
304.449
304.48
304.502
304.513
304.513
304.503
304.48
304.445
304.397
304.335
304.26
304.17
304.066
303.947
303.813
303.662
303.495
303.309
303.104
302.876
302.62
302.325
301.971
301.506
300.778
301.387
302.977
304.048
304.858
305.521
306.091
306.597
307.058
307.484
307.884
308.261
308.619
308.961
309.288
309.601
309.9
310.186
310.458
310.716
310.958
311.183
311.391
311.579
311.746
311.89
312.009
312.102
312.166
312.2
312.201
312.169
312.101
311.995
311.851
311.667
311.442
311.174
310.862
310.505
310.102
309.652
309.151
308.597
307.984
307.304
306.541
305.668
304.636
303.333
301.506
301.774
304.046
305.685
306.972
308.045
308.977
309.811
310.572
311.277
311.938
312.563
313.158
313.725
314.268
314.788
315.286
315.761
316.214
316.642
317.044
317.419
317.764
318.076
318.354
318.593
318.792
318.946
319.053
319.109
319.112
319.058
318.945
318.77
318.531
318.225
317.85
317.405
316.887
316.295
315.626
314.879
314.049
313.131
312.117
310.994
309.741
308.32
306.663
304.639
301.972
302.052
304.852
306.966
308.676
310.127
311.4
312.547
313.598
314.575
315.493
316.361
317.188
317.978
318.734
319.459
320.152
320.815
321.445
322.042
322.603
323.126
323.607
324.043
324.43
324.764
325.041
325.256
325.405
325.484
325.488
325.413
325.256
325.012
324.679
324.253
323.731
323.111
322.39
321.566
320.636
319.596
318.443
317.169
315.765
314.215
312.493
310.556
308.331
305.679
302.329
302.274
305.506
308.026
310.112
311.908
313.501
314.944
316.274
317.513
318.68
319.786
320.841
321.848
322.814
323.74
324.626
325.473
326.279
327.042
327.76
328.429
329.044
329.602
330.097
330.525
330.879
331.155
331.346
331.447
331.452
331.357
331.156
330.845
330.419
329.875
329.208
328.416
327.496
326.444
325.258
323.933
322.465
320.845
319.064
317.104
314.937
312.518
309.773
306.566
302.629
302.462
306.063
308.938
311.359
313.471
315.362
317.086
318.68
320.172
321.58
322.916
324.191
325.412
326.582
327.704
328.779
329.807
330.785
331.712
332.583
333.396
334.143
334.821
335.423
335.942
336.373
336.708
336.94
337.063
337.07
336.955
336.712
336.335
335.819
335.159
334.351
333.391
332.276
331.003
329.567
327.964
326.19
324.237
322.093
319.741
317.153
314.285
311.061
307.351
302.893
302.625
306.551
309.741
312.466
314.869
317.036
319.023
320.869
322.602
324.241
325.8
327.289
328.715
330.084
331.398
332.657
333.861
335.007
336.094
337.116
338.068
338.945
339.741
340.447
341.056
341.562
341.955
342.228
342.373
342.382
342.248
341.964
341.523
340.919
340.146
339.201
338.078
336.774
335.284
333.607
331.736
329.667
327.393
324.901
322.176
319.19
315.9
312.234
308.062
303.132
302.771
306.987
310.462
313.463
316.132
318.557
320.791
322.876
324.838
326.697
328.469
330.164
331.79
333.351
334.85
336.288
337.663
338.974
340.216
341.384
342.473
343.476
344.386
345.194
345.892
346.47
346.921
347.234
347.4
347.412
347.259
346.935
346.432
345.743
344.862
343.783
342.502
341.015
339.318
337.406
335.277
332.925
330.343
327.521
324.441
321.08
317.394
313.315
308.717
303.351
302.903
307.381
311.114
314.369
317.285
319.948
322.415
324.724
326.903
328.972
330.948
332.841
334.658
336.404
338.082
339.692
341.233
342.702
344.094
345.405
346.627
347.752
348.773
349.68
350.463
351.113
351.619
351.971
352.159
352.173
352.003
351.641
351.078
350.307
349.321
348.114
346.681
345.018
343.12
340.985
338.608
335.985
333.11
329.972
326.557
322.841
318.784
314.319
309.324
303.554
303.023
307.74
311.71
315.197
318.341
321.227
323.91
326.43
328.814
331.083
333.253
335.334
337.334
339.258
341.107
342.883
344.583
346.204
347.742
349.189
350.539
351.782
352.91
353.913
354.779
355.498
356.058
356.448
356.656
356.673
356.487
356.088
355.468
354.619
353.532
352.202
350.624
348.792
346.703
344.354
341.741
338.86
335.705
332.269
328.536
324.486
320.08
315.254
309.889
303.743
303.133
308.068
312.256
315.957
319.312
322.404
325.29
328.007
330.584
333.042
335.395
337.655
339.828
341.921
343.934
345.869
347.721
349.488
351.165
352.743
354.216
355.573
356.804
357.899
358.844
359.63
360.242
360.668
360.897
360.917
360.715
360.282
359.608
358.684
357.501
356.054
354.337
352.344
350.073
347.521
344.683
341.557
338.139
334.42
330.389
326.024
321.291
316.127
310.416
303.919
303.233
308.37
312.756
316.655
320.205
323.489
326.562
329.464
332.222
334.856
337.382
339.811
342.149
344.402
346.571
348.655
350.653
352.559
354.368
356.072
357.661
359.127
360.457
361.639
362.661
363.509
364.171
364.633
364.882
364.904
364.689
364.223
363.498
362.502
361.229
359.671
357.822
355.678
353.234
350.489
347.439
344.083
340.416
336.431
332.119
327.46
322.421
316.941
310.907
304.084
303.325
308.646
313.215
317.296
321.025
324.486
327.734
330.807
333.733
336.533
339.221
341.807
344.301
346.704
349.02
351.246
353.381
355.419
357.353
359.175
360.876
362.444
363.867
365.133
366.227
367.137
367.846
368.341
368.609
368.635
368.406
367.91
367.136
366.074
364.716
363.053
361.08
358.793
356.187
353.261
350.012
346.439
342.539
338.306
333.731
328.797
323.472
317.698
311.364
304.236
303.41
308.898
313.635
317.882
321.776
325.4
328.809
332.041
335.123
338.076
340.914
343.649
346.287
348.831
351.284
353.644
355.907
358.068
360.121
362.054
363.86
365.524
367.036
368.38
369.543
370.509
371.263
371.79
372.076
372.105
371.864
371.34
370.521
369.397
367.959
366.198
364.109
361.688
358.931
355.836
352.401
348.626
344.508
340.044
335.225
330.036
324.446
318.399
311.787
304.378
303.486
309.128
314.018
318.416
322.461
326.234
329.791
333.168
336.394
339.488
342.466
345.337
348.109
350.784
353.365
355.848
358.231
360.508
362.67
364.707
366.61
368.365
369.959
371.376
372.603
373.622
374.419
374.976
375.279
375.311
375.059
374.509
373.649
372.467
370.954
369.103
366.907
364.362
361.464
358.212
354.606
350.643
346.325
341.647
336.602
331.177
325.343
319.045
312.177
304.508
303.556
309.336
314.364
318.9
323.081
326.99
330.681
334.191
337.548
340.772
343.877
346.874
349.768
352.564
355.262
357.859
360.353
362.735
364.998
367.132
369.125
370.964
372.633
374.119
375.405
376.474
377.309
377.894
378.213
378.249
377.987
377.413
376.514
375.279
373.699
371.764
369.47
366.81
363.784
360.388
356.623
352.49
347.987
343.113
337.862
332.221
326.163
319.635
312.533
304.627
303.618
309.523
314.675
319.334
323.638
327.669
331.481
335.111
338.587
341.928
345.149
348.259
351.265
354.17
356.975
359.676
362.27
364.749
367.105
369.327
371.402
373.316
375.056
376.604
377.944
379.058
379.929
380.54
380.873
380.912
380.641
380.046
379.113
377.83
376.187
374.177
371.793
369.03
365.886
362.36
358.452
354.162
349.492
344.44
339.002
333.165
326.905
320.17
312.855
304.734
303.673
309.688
314.95
319.72
324.133
328.273
332.192
335.929
339.511
342.957
346.281
349.493
352.599
355.602
358.503
361.297
363.982
366.548
368.987
371.288
373.437
375.42
377.222
378.826
380.215
381.37
382.274
382.908
383.255
383.297
383.018
382.403
381.439
380.113
378.415
376.337
373.872
371.017
367.767
364.124
360.087
355.658
350.838
345.628
340.022
334.01
327.569
320.647
313.143
304.831
303.721
309.833
315.191
320.057
324.566
328.8
332.815
336.645
340.32
343.858
347.273
350.575
353.769
356.859
359.844
362.721
365.485
368.129
370.641
373.012
375.227
377.271
379.129
380.783
382.215
383.406
384.339
384.993
385.352
385.397
385.111
384.48
383.488
382.124
380.378
378.24
375.704
372.766
369.424
365.678
361.527
356.976
352.024
346.673
340.919
334.754
328.153
321.068
313.396
304.915
303.763
309.957
315.398
320.346
324.937
329.253
333.348
337.26
341.014
344.631
348.125
351.504
354.775
357.939
360.997
363.946
366.779
369.489
372.065
374.496
376.768
378.865
380.771
382.468
383.938
385.161
386.118
386.791
387.16
387.208
386.916
386.27
385.255
383.859
382.07
379.88
377.283
374.275
370.853
367.017
362.769
358.111
353.045
347.573
341.693
335.394
328.656
321.43
313.615
304.988
303.797
310.06
315.57
320.586
325.246
329.63
333.793
337.772
341.594
345.277
348.836
352.28
355.615
358.842
361.961
364.97
367.861
370.627
373.257
375.739
378.058
380.2
382.146
383.879
385.381
386.63
387.609
388.297
388.675
388.724
388.428
387.77
386.735
385.311
383.487
381.254
378.606
375.538
372.049
368.139
363.809
359.062
353.901
348.327
342.34
335.931
329.077
321.733
313.797
305.049
303.825
310.143
315.708
320.779
325.493
329.932
334.15
338.183
342.058
345.795
349.406
352.902
356.288
359.566
362.735
365.791
368.729
371.54
374.213
376.736
379.094
381.271
383.25
385.013
386.539
387.811
388.806
389.506
389.892
389.943
389.643
388.975
387.925
386.479
384.626
382.358
379.669
376.553
373.01
369.04
364.644
359.825
354.588
348.933
342.86
336.361
329.416
321.976
313.944
305.098
303.845
310.205
315.811
320.924
325.679
330.159
334.417
338.491
342.407
346.183
349.834
353.369
356.794
360.109
363.316
366.408
369.381
372.226
374.932
377.485
379.873
382.077
384.081
385.865
387.411
388.699
389.707
390.417
390.807
390.86
390.557
389.882
388.82
387.357
385.483
383.189
380.468
377.317
373.734
369.718
365.272
360.4
355.105
349.389
343.252
336.686
329.67
322.16
314.055
305.135
303.859
310.246
315.88
321.02
325.803
330.31
334.596
338.697
342.639
346.442
350.12
353.681
357.131
360.473
363.703
366.82
369.817
372.685
375.412
377.986
380.393
382.615
384.636
386.435
387.994
389.292
390.309
391.025
391.419
391.473
391.168
390.488
389.418
387.944
386.056
383.744
381.003
377.828
374.217
370.171
365.692
360.784
355.45
349.693
343.513
336.902
329.84
322.282
314.128
305.16
303.866
310.267
315.915
321.068
325.865
330.386
334.685
338.799
342.755
346.572
350.263
353.837
357.3
360.654
363.898
367.027
370.035
372.914
375.652
378.237
380.653
382.885
384.913
386.72
388.286
389.589
390.611
391.329
391.726
391.78
391.474
390.792
389.718
388.238
386.343
384.023
381.271
378.083
374.459
370.398
365.903
360.977
355.623
349.846
343.644
337.011
329.926
322.343
314.165
305.172
303.866
310.267
315.915
321.068
325.865
330.386
334.685
338.799
342.755
346.572
350.263
353.837
357.3
360.654
363.898
367.027
370.035
372.914
375.652
378.237
380.653
382.885
384.913
386.72
388.286
389.589
390.611
391.329
391.726
391.78
391.474
390.792
389.718
388.238
386.343
384.023
381.271
378.083
374.459
370.398
365.903
360.977
355.623
349.846
343.644
337.011
329.926
322.343
314.165
305.172
303.859
310.246
315.88
321.02
325.803
330.31
334.596
338.697
342.639
346.442
350.12
353.681
357.132
360.473
363.703
366.82
369.817
372.685
375.412
377.986
380.393
382.615
384.636
386.435
387.994
389.292
390.309
391.025
391.419
391.473
391.168
390.488
389.418
387.944
386.056
383.744
381.003
377.828
374.217
370.171
365.692
360.784
355.45
349.693
343.513
336.902
329.84
322.282
314.128
305.16
303.845
310.205
315.811
320.924
325.679
330.159
334.417
338.491
342.407
346.183
349.834
353.369
356.794
360.11
363.316
366.408
369.381
372.226
374.932
377.486
379.873
382.077
384.081
385.865
387.411
388.699
389.707
390.417
390.807
390.86
390.557
389.882
388.82
387.357
385.483
383.189
380.468
377.317
373.734
369.718
365.272
360.4
355.105
349.389
343.252
336.686
329.67
322.16
314.055
305.135
303.825
310.143
315.708
320.779
325.493
329.932
334.15
338.183
342.058
345.795
349.406
352.902
356.288
359.566
362.735
365.791
368.729
371.54
374.213
376.736
379.094
381.271
383.25
385.013
386.54
387.811
388.806
389.506
389.892
389.943
389.643
388.975
387.925
386.479
384.626
382.358
379.669
376.553
373.01
369.04
364.644
359.825
354.588
348.933
342.86
336.361
329.416
321.976
313.944
305.098
303.797
310.06
315.57
320.586
325.246
329.63
333.794
337.773
341.594
345.277
348.836
352.28
355.615
358.842
361.962
364.97
367.861
370.627
373.257
375.739
378.058
380.2
382.146
383.879
385.381
386.63
387.609
388.297
388.675
388.725
388.428
387.77
386.736
385.312
383.487
381.254
378.606
375.538
372.049
368.139
363.809
359.062
353.901
348.327
342.34
335.931
329.077
321.733
313.797
305.049
303.763
309.957
315.398
320.346
324.937
329.253
333.348
337.26
341.015
344.632
348.125
351.504
354.775
357.939
360.998
363.946
366.779
369.489
372.066
374.497
376.768
378.865
380.771
382.468
383.938
385.161
386.119
386.791
387.16
387.208
386.917
386.271
385.255
383.859
382.07
379.88
377.283
374.275
370.853
367.017
362.769
358.111
353.045
347.573
341.693
335.394
328.656
321.43
313.615
304.988
303.721
309.833
315.191
320.057
324.566
328.8
332.815
336.646
340.32
343.858
347.273
350.575
353.769
356.859
359.844
362.721
365.486
368.129
370.642
373.012
375.227
377.271
379.129
380.783
382.215
383.406
384.339
384.994
385.352
385.397
385.112
384.48
383.489
382.125
380.378
378.24
375.704
372.766
369.424
365.678
361.527
356.975
352.024
346.673
340.919
334.754
328.153
321.068
313.396
304.915
303.673
309.688
314.95
319.72
324.133
328.273
332.192
335.929
339.511
342.957
346.281
349.493
352.599
355.602
358.503
361.298
363.982
366.548
368.987
371.288
373.437
375.42
377.223
378.827
380.215
381.371
382.274
382.908
383.255
383.297
383.018
382.404
381.439
380.113
378.415
376.337
373.872
371.017
367.767
364.124
360.087
355.658
350.838
345.627
340.022
334.01
327.569
320.647
313.143
304.831
303.618
309.523
314.675
319.334
323.638
327.669
331.481
335.111
338.587
341.928
345.149
348.259
351.265
354.171
356.975
359.677
362.27
364.75
367.105
369.327
371.402
373.317
375.056
376.604
377.944
379.058
379.93
380.54
380.874
380.913
380.642
380.046
379.113
377.83
376.188
374.177
371.793
369.03
365.886
362.36
358.451
354.162
349.492
344.44
339.002
333.165
326.905
320.17
312.855
304.734
303.556
309.336
314.364
318.9
323.081
326.99
330.681
334.191
337.548
340.772
343.877
346.874
349.769
352.564
355.262
357.86
360.353
362.735
364.999
367.133
369.125
370.964
372.634
374.119
375.405
376.474
377.31
377.895
378.213
378.249
377.987
377.413
376.514
375.28
373.699
371.764
369.47
366.81
363.784
360.388
356.623
352.49
347.987
343.113
337.862
332.221
326.163
319.635
312.533
304.627
303.486
309.128
314.018
318.416
322.461
326.234
329.791
333.168
336.394
339.489
342.466
345.338
348.109
350.785
353.365
355.849
358.232
360.508
362.67
364.708
366.61
368.365
369.959
371.377
372.603
373.623
374.419
374.977
375.279
375.312
375.06
374.509
373.649
372.467
370.954
369.103
366.907
364.362
361.464
358.212
354.606
350.643
346.325
341.647
336.602
331.177
325.343
319.045
312.177
304.508
303.41
308.898
313.635
317.882
321.776
325.4
328.809
332.041
335.123
338.076
340.915
343.649
346.287
348.832
351.284
353.644
355.907
358.069
360.121
362.055
363.86
365.525
367.036
368.38
369.543
370.509
371.263
371.791
372.076
372.105
371.864
371.34
370.521
369.397
367.959
366.198
364.11
361.688
358.931
355.836
352.401
348.626
344.508
340.044
335.225
330.036
324.446
318.399
311.787
304.378
303.325
308.646
313.215
317.296
321.025
324.486
327.734
330.807
333.733
336.533
339.221
341.808
344.301
346.704
349.02
351.247
353.381
355.419
357.353
359.176
360.877
362.445
363.868
365.134
366.228
367.137
367.846
368.342
368.609
368.635
368.406
367.91
367.136
366.075
364.716
363.053
361.08
358.793
356.187
353.261
350.012
346.439
342.538
338.306
333.731
328.797
323.472
317.698
311.364
304.236
303.233
308.37
312.756
316.655
320.205
323.489
326.563
329.464
332.222
334.856
337.382
339.811
342.149
344.402
346.571
348.656
350.653
352.559
354.368
356.072
357.662
359.127
360.457
361.639
362.661
363.51
364.172
364.634
364.882
364.905
364.689
364.224
363.498
362.503
361.229
359.671
357.822
355.678
353.234
350.489
347.439
344.083
340.416
336.431
332.119
327.46
322.421
316.941
310.907
304.083
303.133
308.068
312.256
315.957
319.312
322.405
325.29
328.007
330.584
333.042
335.395
337.655
339.829
341.921
343.935
345.869
347.722
349.489
351.165
352.744
354.216
355.573
356.805
357.899
358.845
359.63
360.242
360.669
360.897
360.917
360.716
360.283
359.608
358.684
357.501
356.054
354.337
352.344
350.073
347.521
344.683
341.557
338.139
334.42
330.389
326.024
321.291
316.127
310.416
303.919
303.023
307.74
311.71
315.197
318.341
321.227
323.91
326.43
328.814
331.083
333.253
335.334
337.334
339.258
341.107
342.883
344.583
346.205
347.742
349.189
350.539
351.783
352.911
353.913
354.779
355.498
356.058
356.448
356.657
356.673
356.487
356.089
355.469
354.619
353.532
352.203
350.624
348.792
346.703
344.354
341.741
338.86
335.705
332.269
328.536
324.486
320.08
315.254
309.889
303.743
302.903
307.381
311.114
314.369
317.285
319.948
322.415
324.724
326.903
328.973
330.948
332.841
334.658
336.405
338.082
339.693
341.233
342.702
344.095
345.405
346.627
347.752
348.773
349.68
350.463
351.113
351.619
351.971
352.159
352.173
352.003
351.641
351.078
350.307
349.321
348.114
346.681
345.018
343.12
340.985
338.608
335.985
333.11
329.972
326.557
322.841
318.784
314.319
309.324
303.554
302.771
306.987
310.462
313.463
316.133
318.557
320.791
322.876
324.838
326.697
328.469
330.165
331.79
333.352
334.851
336.288
337.664
338.974
340.216
341.384
342.474
343.477
344.386
345.194
345.892
346.471
346.921
347.234
347.401
347.412
347.26
346.936
346.432
345.743
344.862
343.783
342.502
341.015
339.318
337.406
335.277
332.925
330.343
327.521
324.441
321.08
317.394
313.315
308.717
303.351
302.625
306.551
309.741
312.466
314.869
317.036
319.023
320.87
322.602
324.241
325.8
327.289
328.716
330.084
331.398
332.657
333.861
335.008
336.094
337.116
338.069
338.946
339.741
340.447
341.057
341.562
341.956
342.229
342.374
342.383
342.249
341.964
341.523
340.919
340.147
339.201
338.078
336.774
335.285
333.607
331.736
329.667
327.393
324.901
322.176
319.19
315.9
312.234
308.062
303.132
302.462
306.063
308.938
311.359
313.472
315.362
317.086
318.68
320.172
321.58
322.916
324.192
325.412
326.582
327.704
328.779
329.807
330.785
331.712
332.584
333.396
334.144
334.821
335.423
335.943
336.373
336.708
336.941
337.064
337.071
336.956
336.713
336.335
335.819
335.159
334.351
333.391
332.276
331.003
329.567
327.964
326.19
324.237
322.093
319.741
317.153
314.284
311.061
307.351
302.893
302.274
305.506
308.027
310.112
311.908
313.501
314.944
316.274
317.513
318.68
319.787
320.841
321.849
322.814
323.74
324.626
325.473
326.279
327.042
327.76
328.429
329.044
329.602
330.098
330.525
330.88
331.155
331.346
331.447
331.452
331.357
331.156
330.845
330.419
329.875
329.208
328.416
327.496
326.444
325.258
323.933
322.465
320.845
319.064
317.103
314.936
312.518
309.773
306.566
302.629
302.052
304.852
306.966
308.676
310.127
311.4
312.547
313.598
314.575
315.493
316.361
317.188
317.978
318.734
319.459
320.152
320.815
321.445
322.042
322.604
323.126
323.608
324.044
324.431
324.765
325.041
325.257
325.406
325.484
325.488
325.414
325.256
325.013
324.679
324.253
323.731
323.111
322.39
321.566
320.636
319.596
318.443
317.169
315.765
314.215
312.493
310.556
308.331
305.679
302.329
301.774
304.046
305.685
306.972
308.046
308.978
309.811
310.572
311.277
311.938
312.563
313.158
313.725
314.268
314.788
315.286
315.761
316.214
316.642
317.044
317.419
317.764
318.077
318.354
318.594
318.792
318.946
319.053
319.109
319.112
319.058
318.945
318.77
318.531
318.225
317.85
317.405
316.887
316.295
315.626
314.879
314.049
313.131
312.117
310.994
309.741
308.32
306.663
304.639
301.972
301.387
302.977
304.048
304.858
305.521
306.091
306.597
307.058
307.485
307.884
308.261
308.619
308.961
309.288
309.601
309.9
310.186
310.458
310.716
310.958
311.184
311.391
311.579
311.746
311.89
312.009
312.102
312.166
312.2
312.201
312.169
312.101
311.996
311.851
311.667
311.442
311.174
310.862
310.505
310.102
309.652
309.151
308.597
307.984
307.304
306.541
305.668
304.636
303.333
301.506
300.738
301.387
301.774
302.055
302.279
302.471
302.641
302.796
302.939
303.072
303.198
303.318
303.432
303.541
303.646
303.746
303.841
303.932
304.018
304.099
304.174
304.243
304.306
304.362
304.41
304.449
304.48
304.502
304.513
304.514
304.503
304.48
304.445
304.397
304.335
304.26
304.17
304.066
303.947
303.813
303.662
303.495
303.309
303.104
302.876
302.62
302.325
301.971
301.506
300.778
300.299
300.739
301.066
301.324
301.54
301.727
301.895
302.048
302.19
302.324
302.449
302.569
302.683
302.793
302.897
302.998
303.093
303.184
303.271
303.352
303.427
303.496
303.559
303.615
303.663
303.703
303.734
303.756
303.767
303.768
303.757
303.734
303.699
303.651
303.589
303.513
303.424
303.32
303.2
303.066
302.915
302.748
302.563
302.359
302.133
301.881
301.595
301.263
300.859
300.339
300.739
301.929
302.859
303.614
304.251
304.808
305.308
305.765
306.19
306.588
306.965
307.323
307.665
307.993
308.306
308.606
308.893
309.166
309.424
309.667
309.893
310.101
310.289
310.457
310.601
310.721
310.813
310.878
310.912
310.913
310.881
310.813
310.707
310.563
310.378
310.152
309.884
309.572
309.215
308.812
308.361
307.861
307.308
306.699
306.024
305.273
304.426
303.449
302.286
300.859
301.065
302.858
304.313
305.522
306.558
307.47
308.293
309.049
309.751
310.411
311.036
311.63
312.198
312.742
313.263
313.762
314.238
314.691
315.121
315.524
315.9
316.246
316.559
316.837
317.077
317.276
317.431
317.538
317.594
317.597
317.543
317.43
317.255
317.015
316.708
316.333
315.887
315.368
314.776
314.107
313.36
312.531
311.615
310.606
309.493
308.258
306.873
305.294
303.452
301.264
301.322
303.607
305.516
307.133
308.538
309.788
310.921
311.965
312.938
313.854
314.722
315.549
316.34
317.097
317.823
318.518
319.182
319.814
320.412
320.975
321.499
321.982
322.419
322.807
323.142
323.419
323.635
323.784
323.863
323.868
323.793
323.635
323.391
323.057
322.63
322.107
321.486
320.764
319.939
319.008
317.969
316.816
315.546
314.148
312.61
310.91
309.018
306.884
304.437
301.6
301.535
304.236
306.539
308.523
310.268
311.834
313.262
314.583
315.818
316.983
318.089
319.144
320.153
321.12
322.047
322.935
323.784
324.592
325.357
326.076
326.747
327.364
327.923
328.42
328.849
329.204
329.48
329.672
329.773
329.778
329.683
329.482
329.17
328.743
328.198
327.53
326.737
325.815
324.762
323.575
322.25
320.783
319.167
317.393
315.446
313.305
310.936
308.29
305.299
301.89
301.718
304.78
307.431
309.746
311.804
313.665
315.372
316.958
318.445
319.85
321.186
322.462
323.684
324.856
325.98
327.057
328.087
329.068
329.997
330.871
331.685
332.435
333.114
333.718
334.239
334.67
335.006
335.239
335.363
335.37
335.255
335.011
334.633
334.116
333.455
332.645
331.684
330.567
329.292
327.855
326.252
324.479
322.53
320.393
318.056
315.496
312.68
309.56
306.071
302.15
301.879
305.262
308.224
310.84
313.186
315.322
317.292
319.129
320.857
322.493
324.052
325.542
326.97
328.341
329.657
330.919
332.125
333.275
334.364
335.389
336.343
337.223
338.02
338.728
339.339
339.846
340.241
340.514
340.66
340.669
340.535
340.25
339.808
339.202
338.429
337.481
336.356
335.05
333.559
331.88
330.009
327.941
325.67
323.186
320.477
317.52
314.284
310.723
306.777
302.387
302.024
305.694
308.938
311.829
314.441
316.834
319.051
321.125
323.082
324.94
326.712
328.408
330.036
331.599
333.101
334.542
335.92
337.234
338.479
339.65
340.742
341.748
342.66
343.47
344.17
344.75
345.202
345.515
345.683
345.694
345.542
345.217
344.712
344.022
343.139
342.058
340.775
339.285
337.586
335.673
333.543
331.191
328.613
325.798
322.734
319.402
315.771
311.799
307.429
302.605
302.155
306.086
309.588
312.731
315.589
318.22
320.669
322.968
325.142
327.21
329.186
331.08
332.899
334.649
336.33
337.943
339.488
340.96
342.356
343.669
344.894
346.023
347.046
347.955
348.741
349.392
349.9
350.253
350.441
350.455
350.285
349.923
349.359
348.586
347.598
346.388
344.953
343.287
341.387
339.249
336.871
334.249
331.376
328.246
324.847
321.16
317.158
312.801
308.034
302.808
302.274
306.444
310.182
313.558
316.643
319.497
322.162
324.672
327.051
329.318
331.489
333.572
335.574
337.501
339.354
341.134
342.838
344.463
346.004
347.455
348.809
350.055
351.186
352.192
353.06
353.781
354.342
354.733
354.943
354.959
354.773
354.374
353.752
352.901
351.812
350.48
348.898
347.063
344.971
342.619
340.005
337.124
333.972
330.543
326.826
322.805
318.454
313.736
308.599
302.996
302.384
306.772
310.727
314.317
317.613
320.673
323.541
326.248
328.821
331.277
333.631
335.893
338.07
340.166
342.183
344.122
345.979
347.75
349.431
351.013
352.49
353.85
355.085
356.182
357.13
357.917
358.531
358.959
359.189
359.208
359.007
358.573
357.897
356.971
355.786
354.336
352.615
350.619
348.345
345.789
342.95
339.823
336.407
332.695
328.679
324.344
319.665
314.609
309.126
303.173
302.484
307.073
311.228
315.015
318.506
321.758
324.814
327.706
330.459
333.092
335.619
338.051
340.392
342.649
344.823
346.912
348.914
350.825
352.638
354.346
355.94
357.409
358.742
359.928
360.953
361.803
362.467
362.93
363.18
363.202
362.986
362.52
361.793
360.795
359.52
357.958
356.106
353.958
351.511
348.762
345.71
342.352
338.687
334.709
330.412
325.781
320.796
315.424
309.618
303.337
302.577
307.349
311.687
315.656
319.327
322.756
325.986
329.05
331.972
334.771
337.46
340.05
342.547
344.955
347.275
349.507
351.646
353.689
355.628
357.455
359.16
360.732
362.16
363.429
364.526
365.437
366.149
366.646
366.914
366.94
366.711
366.214
365.438
364.374
363.013
361.346
359.37
357.078
354.468
351.538
348.287
344.712
340.813
336.586
332.026
327.12
321.849
316.182
310.075
303.49
302.661
307.602
312.108
316.243
320.079
323.671
327.062
330.285
333.364
336.316
339.157
341.894
344.536
347.086
349.544
351.909
354.177
356.344
358.401
360.34
362.15
363.819
365.334
366.682
367.848
368.816
369.573
370.102
370.388
370.417
370.176
369.651
368.83
367.703
366.262
364.498
362.405
359.979
357.218
354.118
350.68
346.903
342.787
338.328
333.523
328.361
322.824
316.884
310.499
303.632
302.738
307.832
312.491
316.778
320.765
324.506
328.046
331.414
334.637
337.731
340.711
343.586
346.362
349.043
351.628
354.117
356.506
358.788
360.955
362.998
364.906
366.665
368.263
369.685
370.915
371.937
372.735
373.294
373.598
373.631
373.378
372.827
371.964
370.78
369.264
367.409
365.209
362.659
359.756
356.5
352.889
348.925
344.607
339.934
334.903
329.504
323.723
317.531
310.889
303.762
302.807
308.041
312.837
317.263
321.386
325.264
328.938
332.439
335.793
339.018
342.125
345.125
348.025
350.826
353.529
356.133
358.632
361.02
363.289
365.429
367.427
369.27
370.944
372.434
373.723
374.795
375.632
376.219
376.539
376.575
376.312
375.737
374.836
373.599
372.015
370.076
367.777
365.113
362.081
358.68
354.911
350.775
346.272
341.403
336.165
330.55
324.545
318.123
311.246
303.881
302.87
308.228
313.149
317.698
321.944
325.944
329.739
333.361
336.834
340.176
343.399
346.514
349.525
352.436
355.246
357.954
360.554
363.039
365.401
367.628
369.708
371.628
373.372
374.924
376.268
377.385
378.259
378.871
379.206
379.245
378.973
378.377
377.441
376.156
374.509
372.495
370.106
367.338
364.188
360.657
356.744
352.451
347.781
342.733
337.308
331.497
325.289
318.658
311.569
303.989
302.925
308.394
313.425
318.084
322.44
326.549
330.452
334.181
337.76
341.207
344.534
347.75
350.862
353.871
356.778
359.579
362.269
364.842
367.287
369.594
371.748
373.737
375.544
377.152
378.545
379.703
380.609
381.245
381.593
381.635
381.356
380.74
379.773
378.444
376.743
374.66
372.19
369.329
366.074
362.425
358.384
353.951
349.131
343.924
338.33
332.344
325.954
319.137
311.858
304.086
302.973
308.539
313.666
318.422
322.874
327.078
331.076
334.899
338.571
342.11
345.528
348.835
352.035
355.131
358.122
361.006
363.777
366.426
368.945
371.322
373.543
375.592
377.455
379.113
380.549
381.744
382.679
383.336
383.695
383.74
383.454
382.821
381.828
380.461
378.71
376.567
374.026
371.083
367.735
363.983
359.827
355.272
350.319
344.971
339.229
333.089
326.54
319.559
312.112
304.171
303.015
308.663
313.873
318.711
323.246
327.531
331.611
335.515
339.267
342.886
346.382
349.766
353.043
356.214
359.278
362.234
365.074
367.79
370.373
372.81
375.088
377.191
379.102
380.803
382.277
383.503
384.463
385.138
385.508
385.556
385.264
384.616
383.599
382.199
380.406
378.212
375.609
372.595
369.167
365.325
361.072
356.41
351.343
345.874
340.005
333.731
327.044
319.922
312.33
304.244
303.049
308.767
314.046
318.953
323.555
327.91
332.057
336.029
339.848
343.533
347.095
350.544
353.885
357.118
360.245
363.26
366.158
368.931
371.567
374.056
376.381
378.528
380.48
382.218
383.723
384.976
385.957
386.647
387.026
387.076
386.78
386.12
385.083
383.656
381.827
379.589
376.936
373.862
370.366
366.45
362.114
357.363
352.2
346.63
340.654
334.269
327.466
320.225
312.514
304.305
303.077
308.849
314.184
319.146
323.804
328.213
332.414
336.44
340.313
344.051
347.667
351.168
354.56
357.844
361.02
364.083
367.028
369.846
372.526
375.055
377.419
379.602
381.587
383.354
384.885
386.159
387.158
387.86
388.246
388.298
387.997
387.328
386.275
384.826
382.969
380.696
378.001
374.88
371.33
367.353
362.952
358.129
352.889
347.237
341.175
334.701
327.806
320.47
312.661
304.354
303.098
308.912
314.288
319.291
323.99
328.44
332.683
336.749
340.663
344.441
348.096
351.636
355.067
358.389
361.602
364.702
367.682
370.534
373.247
375.807
378.2
380.41
382.419
384.209
385.759
387.05
388.061
388.772
389.164
389.217
388.914
388.237
387.173
385.707
383.829
381.529
378.803
375.645
372.055
368.033
363.582
358.705
353.408
347.694
341.568
335.026
328.061
320.653
312.772
304.391
303.111
308.953
314.357
319.387
324.114
328.591
332.861
336.955
340.896
344.701
348.382
351.949
355.405
358.753
361.991
365.115
368.119
370.994
373.728
376.309
378.722
380.95
382.976
384.78
386.343
387.645
388.665
389.382
389.778
389.832
389.527
388.845
387.772
386.295
384.403
382.086
379.339
376.157
372.54
368.488
364.003
359.09