/*--------------------------------*- C++ -*----------------------------------*\
| =========                 |                                                 |
| \\      /  F ield         | OpenFOAM: The Open Source CFD Toolbox           |
|  \\    /   O peration     | Version:  5.x                                   |
|   \\  /    A nd           | Web:      www.OpenFOAM.org                      |
|    \\/     M anipulation  |                                                 |
\*---------------------------------------------------------------------------*/
FoamFile
{
    version     2.0;
    format      ascii;
    class       volScalarField;
    location    "0.5";
    object      gradTz;
}
// * * * * * * * * * * * * * * * * * * * * * * * * * * * * * * * * * * * * * //

dimensions      [0 -1 0 1 0 0 0];

internalField   nonuniform List<scalar> 
25000
(
-6334.3
-6851.59
-7001.6
-7054.76
-7076.96
-7087.3
-7092.36
-7094.78
-7095.75
-7095.85
-7095.42
-7094.62
-7093.57
-7092.33
-7090.94
-7089.44
-7087.84
-7086.17
-7084.44
-7082.66
-7080.85
-7079.04
-7077.24
-7075.46
-7073.73
-7072.08
-7070.53
-7069.09
-7067.81
-7066.7
-7065.79
-7065.1
-7064.66
-7064.49
-7064.59
-7064.98
-7065.65
-7066.6
-7067.78
-7069.13
-7070.54
-7071.82
-7072.64
-7072.36
-7069.77
-7062.19
-7043.01
-6993.07
-6846.41
-6332.57
-6851.59
-7842.91
-8187.88
-8324.58
-8385.26
-8414.42
-8428.92
-8435.88
-8438.64
-8438.88
-8437.53
-8435.12
-8431.94
-8428.21
-8424.04
-8419.52
-8414.72
-8409.7
-8404.49
-8399.16
-8393.74
-8388.29
-8382.87
-8377.53
-8372.35
-8367.38
-8362.71
-8358.41
-8354.55
-8351.22
-8348.49
-8346.42
-8345.1
-8344.57
-8344.88
-8346.05
-8348.08
-8350.93
-8354.49
-8358.57
-8362.86
-8366.78
-8369.36
-8368.84
-8361.77
-8340.91
-8289.29
-8162.24
-7827.34
-6846.37
-7001.62
-8187.92
-8637.71
-8828.6
-8917.52
-8961.58
-8983.85
-8994.58
-8998.74
-8998.92
-8996.54
-8992.43
-8987.09
-8980.83
-8973.85
-8966.29
-8958.27
-8949.87
-8941.18
-8932.26
-8923.21
-8914.11
-8905.05
-8896.13
-8887.47
-8879.17
-8871.37
-8864.18
-8857.73
-8852.15
-8847.58
-8844.13
-8841.91
-8841.03
-8841.55
-8843.51
-8846.91
-8851.69
-8857.68
-8864.57
-8871.86
-8878.64
-8883.4
-8883.43
-8873.58
-8843.4
-8769.61
-8594.85
-8161.91
-6992.9
-7054.82
-8324.72
-8828.74
-9052.18
-9159.99
-9214.75
-9242.8
-9256.3
-9261.34
-9261.15
-9257.57
-9251.66
-9244.08
-9235.23
-9225.4
-9214.78
-9203.5
-9191.7
-9179.48
-9166.95
-9154.24
-9141.44
-9128.71
-9116.18
-9104.01
-9092.35
-9081.37
-9071.26
-9062.2
-9054.36
-9047.93
-9043.07
-9039.95
-9038.7
-9039.43
-9042.19
-9047
-9053.75
-9062.24
-9072.06
-9082.54
-9092.51
-9100.02
-9101.63
-9091.04
-9055.8
-8969.26
-8768.49
-8288.15
-7042.56
-7077.08
-8385.58
-8917.94
-9160.33
-9280.09
-9341.96
-9373.9
-9389.15
-9394.48
-9393.6
-9388.61
-9380.77
-9370.86
-9359.37
-9346.64
-9332.9
-9318.33
-9303.08
-9287.3
-9271.12
-9254.69
-9238.17
-9221.72
-9205.54
-9189.81
-9174.74
-9160.56
-9147.49
-9135.77
-9125.63
-9117.31
-9111.02
-9106.98
-9105.36
-9106.3
-9109.88
-9116.12
-9124.9
-9135.98
-9148.88
-9162.77
-9176.3
-9187.17
-9191.46
-9182.08
-9145.43
-9053.16
-8840.07
-8338.32
-7061.23
-7087.52
-8415.04
-8962.46
-9215.68
-9342.63
-9408.88
-9443.13
-9459.21
-9464.3
-9462.38
-9455.78
-9445.87
-9433.53
-9419.33
-9403.63
-9386.72
-9368.81
-9350.07
-9330.68
-9310.8
-9290.62
-9270.32
-9250.11
-9230.22
-9210.88
-9192.36
-9174.92
-9158.85
-9144.43
-9131.95
-9121.71
-9113.97
-9108.99
-9106.99
-9108.14
-9112.55
-9120.25
-9131.13
-9144.9
-9161.02
-9178.58
-9196.03
-9210.87
-9218.81
-9212.29
-9177.06
-9083.91
-8866.72
-8356.93
-7068.04
-7092.73
-8429.96
-8985.42
-9244.63
-9375.63
-9444.29
-9479.63
-9495.77
-9500.13
-9496.88
-9488.45
-9476.35
-9461.49
-9444.49
-9425.78
-9405.65
-9384.34
-9362.07
-9339.02
-9315.39
-9291.4
-9267.28
-9243.25
-9219.6
-9196.61
-9174.57
-9153.83
-9134.7
-9117.54
-9102.69
-9090.49
-9081.26
-9075.32
-9072.92
-9074.29
-9079.55
-9088.75
-9101.78
-9118.34
-9137.84
-9159.28
-9181.02
-9200.35
-9212.78
-9210.43
-9178.67
-9087.87
-8871.51
-8360.84
-7069.55
-7095.34
-8437.51
-8997.1
-9259.4
-9392.42
-9462.1
-9497.61
-9513.21
-9516.45
-9511.6
-9501.19
-9486.76
-9469.29
-9449.44
-9427.65
-9404.25
-9379.51
-9353.65
-9326.9
-9299.48
-9271.64
-9243.63
-9215.74
-9188.28
-9161.58
-9135.99
-9111.89
-9089.67
-9069.72
-9052.45
-9038.25
-9027.51
-9020.58
-9017.78
-9019.36
-9025.48
-9036.21
-9051.45
-9070.88
-9093.9
-9119.43
-9145.75
-9170.03
-9187.61
-9190.43
-9163.6
-9077.3
-8864.77
-8357.2
-7068.42
-7096.57
-8441.03
-9002.51
-9266.14
-9399.85
-9469.61
-9504.63
-9519.23
-9521.04
-9514.39
-9501.84
-9484.98
-9464.83
-9442.07
-9417.16
-9390.45
-9362.23
-9332.75
-9302.26
-9271.01
-9239.28
-9207.36
-9175.56
-9144.25
-9113.8
-9084.61
-9057.11
-9031.74
-9008.97
-8989.24
-8973.02
-8960.74
-8952.8
-8949.58
-8951.36
-8958.35
-8970.64
-8988.14
-9010.52
-9037.16
-9066.95
-9098.1
-9127.68
-9150.93
-9159.64
-9138.78
-9058.36
-8851.53
-8349.4
-7065.85
-7097
-8442.25
-9004.29
-9268.15
-9401.7
-9470.89
-9504.95
-9518.22
-9518.37
-9509.75
-9494.95
-9475.59
-9452.71
-9426.99
-9398.93
-9368.88
-9337.16
-9304.04
-9269.79
-9234.69
-9199.04
-9163.16
-9127.44
-9092.24
-9058.01
-9025.19
-8994.26
-8965.72
-8940.09
-8917.88
-8899.6
-8885.75
-8876.79
-8873.13
-8875.12
-8882.98
-8896.84
-8916.63
-8942.02
-8972.37
-9006.55
-9042.71
-9077.87
-9107.16
-9122.27
-9108.07
-9034.45
-8834.48
-8339.19
-7062.45
-7096.97
-8442.11
-9003.9
-9267.3
-9400.13
-9468.34
-9501.12
-9512.84
-9511.16
-9500.46
-9483.34
-9461.43
-9435.78
-9407.08
-9375.85
-9342.46
-9307.24
-9270.47
-9232.44
-9193.48
-9153.9
-9114.07
-9074.4
-9035.31
-8997.28
-8960.82
-8926.44
-8894.72
-8866.21
-8841.5
-8821.15
-8805.72
-8795.72
-8791.61
-8793.79
-8802.53
-8817.97
-8840.06
-8868.49
-8902.61
-8941.26
-8982.55
-9023.46
-9059.03
-9080.89
-9073.81
-9007.58
-8815.17
-8327.57
-7058.57
-7096.66
-8441.16
-9002.21
-9264.72
-9396.5
-9463.43
-9494.73
-9504.75
-9501.15
-9488.29
-9468.81
-9444.32
-9415.89
-9384.23
-9349.83
-9313.11
-9274.39
-9233.99
-9192.22
-9149.41
-9105.92
-9062.15
-9018.54
-8975.58
-8933.76
-8893.66
-8855.84
-8820.93
-8789.56
-8762.34
-8739.92
-8722.9
-8711.85
-8707.29
-8709.65
-8719.25
-8736.26
-8760.65
-8792.13
-8830.03
-8873.18
-8919.68
-8966.43
-9008.43
-9037.23
-9037.52
-8979.01
-8794.6
-8315.16
-7054.42
-7096.19
-8439.72
-8999.74
-9261.12
-9391.62
-9457.13
-9486.83
-9495.05
-9489.47
-9474.44
-9452.58
-9425.53
-9394.34
-9359.73
-9322.21
-9282.19
-9240.02
-9196.03
-9150.55
-9103.94
-9056.58
-9008.92
-8961.43
-8914.62
-8869.05
-8825.35
-8784.12
-8746.06
-8711.83
-8682.13
-8657.64
-8639.04
-8626.94
-8621.92
-8624.45
-8634.89
-8653.45
-8680.13
-8714.63
-8756.29
-8803.94
-8855.63
-8908.24
-8956.71
-8992.52
-9000.29
-8949.66
-8773.41
-8302.36
-7050.14
-7095.63
-8438.01
-8996.84
-9256.94
-9386.06
-9450.05
-9478.09
-9484.5
-9476.92
-9459.73
-9435.53
-9405.94
-9372.04
-9334.54
-9293.96
-9250.71
-9205.17
-9157.66
-9108.54
-9058.21
-9007.07
-8955.59
-8904.28
-8853.7
-8804.46
-8757.21
-8712.65
-8671.48
-8634.44
-8602.3
-8575.78
-8555.61
-8542.48
-8536.99
-8539.68
-8550.95
-8571.02
-8599.93
-8637.39
-8682.76
-8734.84
-8791.66
-8850.06
-8904.95
-8947.73
-8962.96
-8920.2
-8752.14
-8289.5
-7045.84
-7095.02
-8436.18
-8993.73
-9252.5
-9380.19
-9442.65
-9469.02
-9473.62
-9464.08
-9444.77
-9418.27
-9386.23
-9349.7
-9309.39
-9265.84
-9219.47
-9170.64
-9119.73
-9067.09
-9013.15
-8958.33
-8903.15
-8848.14
-8793.9
-8741.09
-8690.41
-8642.59
-8598.4
-8558.64
-8524.12
-8495.62
-8473.92
-8459.77
-8453.83
-8456.66
-8468.71
-8490.25
-8521.33
-8561.67
-8610.64
-8667.02
-8728.84
-8792.91
-8854.07
-8903.68
-8926.22
-8891.18
-8731.17
-8276.83
-7041.6
-7094.41
-8434.32
-8990.59
-9248.02
-9374.29
-9435.23
-9459.97
-9462.81
-9451.38
-9430.02
-9401.32
-9366.92
-9327.86
-9284.87
-9238.47
-9189.1
-9137.14
-9082.97
-9026.96
-8969.56
-8911.22
-8852.48
-8793.93
-8736.19
-8679.95
-8625.97
-8575.03
-8527.95
-8485.57
-8448.75
-8418.34
-8395.18
-8380.04
-8373.65
-8376.61
-8389.41
-8412.35
-8445.49
-8488.6
-8541.02
-8601.54
-8668.17
-8737.68
-8804.88
-8861.08
-8890.68
-8863.1
-8710.88
-8264.56
-7037.49
-7093.8
-8432.49
-8987.52
-9243.64
-9368.55
-9428.03
-9451.21
-9452.38
-9439.15
-9415.85
-9385.07
-9348.43
-9306.99
-9261.46
-9212.38
-9160.19
-9105.27
-9048.01
-8988.82
-8928.15
-8866.49
-8804.4
-8742.48
-8681.43
-8621.96
-8564.86
-8510.96
-8461.13
-8416.27
-8377.28
-8345.06
-8320.5
-8304.43
-8297.6
-8300.68
-8314.19
-8338.44
-8373.54
-8419.25
-8474.93
-8539.37
-8610.55
-8685.22
-8758.15
-8820.59
-8856.89
-8836.41
-8691.59
-8252.89
-7033.58
-7093.23
-8430.77
-8984.61
-9239.51
-9363.12
-9421.24
-9442.96
-9442.57
-9427.65
-9402.55
-9369.84
-9331.13
-9287.47
-9239.59
-9188.02
-9133.2
-9075.53
-9015.41
-8953.27
-8889.56
-8824.82
-8759.61
-8694.58
-8630.44
-8567.96
-8507.96
-8451.31
-8398.93
-8351.76
-8310.75
-8276.85
-8250.98
-8234.03
-8226.8
-8229.98
-8244.12
-8269.6
-8306.5
-8354.63
-8413.35
-8481.43
-8556.84
-8636.31
-8714.57
-8782.83
-8825.38
-8811.5
-8673.59
-8242
-7029.94
-7092.7
-8429.18
-8981.93
-9235.7
-9358.13
-9415
-9435.39
-9433.57
-9417.13
-9390.38
-9355.91
-9315.32
-9269.65
-9219.62
-9165.79
-9108.58
-9048.42
-8985.7
-8920.86
-8854.4
-8786.84
-8718.79
-8650.93
-8583.99
-8518.76
-8456.12
-8396.97
-8342.26
-8292.98
-8250.12
-8214.68
-8187.62
-8169.87
-8162.26
-8165.53
-8180.26
-8206.83
-8245.38
-8295.71
-8357.19
-8428.58
-8507.85
-8591.69
-8674.81
-8748.37
-8796.62
-8788.78
-8657.16
-8232.06
-7026.61
-7092.23
-8427.76
-8979.54
-9232.31
-9353.69
-9409.44
-9428.65
-9425.56
-9407.76
-9379.56
-9343.53
-9301.26
-9253.8
-9201.89
-9146.04
-9086.72
-9024.34
-8959.31
-8892.1
-8823.18
-8753.13
-8682.57
-8612.19
-8542.75
-8475.1
-8410.11
-8348.73
-8291.95
-8240.8
-8196.3
-8159.49
-8131.37
-8112.9
-8104.95
-8108.3
-8123.54
-8151.09
-8191.1
-8243.37
-8307.29
-8381.63
-8464.32
-8552.04
-8639.48
-8717.75
-8771.06
-8768.57
-8642.55
-8223.23
-7023.66
-7091.83
-8426.53
-8977.48
-9229.39
-9349.86
-9404.66
-9422.85
-9418.67
-9399.71
-9370.26
-9332.89
-9289.19
-9240.2
-9186.66
-9129.09
-9067.96
-9003.67
-8936.67
-8867.41
-8796.39
-8724.2
-8651.48
-8578.94
-8507.37
-8437.62
-8370.61
-8307.32
-8248.77
-8196.01
-8150.1
-8112.11
-8083.08
-8063.99
-8055.75
-8059.15
-8074.83
-8103.22
-8144.47
-8198.42
-8264.44
-8341.3
-8426.92
-8517.98
-8609.13
-8691.44
-8749.1
-8751.22
-8630.01
-8215.64
-7021.12
-7091.49
-8425.53
-8975.79
-9226.99
-9346.72
-9400.73
-9418.09
-9413.03
-9393.11
-9362.64
-9324.16
-9279.29
-9229.05
-9174.18
-9115.2
-9052.58
-8986.74
-8918.12
-8847.18
-8774.44
-8700.5
-8626
-8551.69
-8478.37
-8406.9
-8338.25
-8273.39
-8213.38
-8159.3
-8112.23
-8073.28
-8043.49
-8023.89
-8015.41
-8018.86
-8034.9
-8063.97
-8106.24
-8161.56
-8229.3
-8308.22
-8396.25
-8490.05
-8584.23
-8669.86
-8731.09
-8736.98
-8619.71
-8209.41
-7019.03
-7091.24
-8424.76
-8974.5
-9225.15
-9344.32
-9397.73
-9414.46
-9408.71
-9388.06
-9356.81
-9317.5
-9271.73
-9220.54
-9164.64
-9104.59
-9040.83
-8973.8
-8903.94
-8831.72
-8757.67
-8682.39
-8606.54
-8530.87
-8456.21
-8383.43
-8313.51
-8247.46
-8186.34
-8131.24
-8083.29
-8043.59
-8013.23
-7993.24
-7984.58
-7988.06
-8004.37
-8033.96
-8077.02
-8133.38
-8202.43
-8282.93
-8372.8
-8468.69
-8565.19
-8653.36
-8717.31
-8726.09
-8611.84
-8204.65
-7017.44
-7091.07
-8424.24
-8973.63
-9223.91
-9342.7
-9395.71
-9412
-9405.79
-9384.65
-9352.87
-9313
-9266.62
-9214.78
-9158.2
-9097.42
-9032.89
-8965.06
-8894.36
-8821.28
-8746.34
-8670.15
-8593.39
-8516.81
-8441.23
-8367.58
-8296.8
-8229.94
-8168.06
-8112.28
-8063.73
-8023.53
-7992.78
-7972.53
-7963.74
-7967.25
-7983.74
-8013.68
-8057.26
-8114.33
-8184.27
-8265.84
-8356.95
-8454.25
-8552.32
-8642.21
-8708
-8718.73
-8606.52
-8201.43
-7016.36
-7090.98
-8423.98
-8973.19
-9223.29
-9341.88
-9394.69
-9410.76
-9404.32
-9382.94
-9350.89
-9310.73
-9264.05
-9211.88
-9154.95
-9093.8
-9028.89
-8960.66
-8889.54
-8816.01
-8740.63
-8663.98
-8586.76
-8509.72
-8433.69
-8359.58
-8288.38
-8221.1
-8158.85
-8102.73
-8053.87
-8013.42
-7982.48
-7962.09
-7953.23
-7956.75
-7973.34
-8003.45
-8047.3
-8104.73
-8175.12
-8257.22
-8348.97
-8446.97
-8545.84
-8636.59
-8703.31
-8715.02
-8603.84
-8199.81
-7015.82
-7090.98
-8423.98
-8973.19
-9223.29
-9341.88
-9394.69
-9410.76
-9404.32
-9382.94
-9350.89
-9310.73
-9264.04
-9211.88
-9154.95
-9093.8
-9028.89
-8960.66
-8889.54
-8816.01
-8740.62
-8663.98
-8586.76
-8509.71
-8433.69
-8359.58
-8288.38
-8221.1
-8158.85
-8102.73
-8053.87
-8013.42
-7982.48
-7962.09
-7953.24
-7956.76
-7973.34
-8003.46
-8047.31
-8104.73
-8175.12
-8257.23
-8348.97
-8446.98
-8545.84
-8636.59
-8703.31
-8715.03
-8603.84
-8199.81
-7015.82
-7091.07
-8424.24
-8973.63
-9223.91
-9342.7
-9395.71
-9412
-9405.79
-9384.65
-9352.87
-9312.99
-9266.62
-9214.78
-9158.2
-9097.41
-9032.89
-8965.06
-8894.36
-8821.27
-8746.33
-8670.15
-8593.38
-8516.8
-8441.23
-8367.57
-8296.8
-8229.93
-8168.06
-8112.28
-8063.73
-8023.53
-7992.79
-7972.53
-7963.74
-7967.25
-7983.74
-8013.68
-8057.27
-8114.34
-8184.28
-8265.85
-8356.96
-8454.26
-8552.33
-8642.22
-8708.01
-8718.74
-8606.53
-8201.44
-7016.36
-7091.24
-8424.76
-8974.5
-9225.15
-9344.32
-9397.73
-9414.45
-9408.71
-9388.06
-9356.81
-9317.5
-9271.73
-9220.53
-9164.64
-9104.58
-9040.83
-8973.8
-8903.94
-8831.71
-8757.66
-8682.38
-8606.53
-8530.87
-8456.2
-8383.43
-8313.51
-8247.46
-8186.33
-8131.24
-8083.29
-8043.59
-8013.23
-7993.25
-7984.58
-7988.07
-8004.38
-8033.97
-8077.03
-8133.39
-8202.44
-8282.95
-8372.82
-8468.7
-8565.21
-8653.38
-8717.33
-8726.1
-8611.85
-8204.66
-7017.44
-7091.49
-8425.53
-8975.79
-9226.99
-9346.72
-9400.73
-9418.09
-9413.02
-9393.11
-9362.63
-9324.16
-9279.29
-9229.05
-9174.17
-9115.2
-9052.57
-8986.74
-8918.11
-8847.17
-8774.44
-8700.49
-8626
-8551.69
-8478.36
-8406.9
-8338.24
-8273.39
-8213.38
-8159.3
-8112.23
-8073.28
-8043.49
-8023.9
-8015.42
-8018.87
-8034.91
-8063.98
-8106.26
-8161.58
-8229.32
-8308.24
-8396.27
-8490.07
-8584.25
-8669.89
-8731.11
-8737
-8619.73
-8209.42
-7019.04
-7091.83
-8426.53
-8977.48
-9229.39
-9349.86
-9404.66
-9422.85
-9418.67
-9399.71
-9370.26
-9332.88
-9289.18
-9240.2
-9186.65
-9129.08
-9067.95
-9003.67
-8936.66
-8867.4
-8796.39
-8724.2
-8651.47
-8578.93
-8507.36
-8437.61
-8370.61
-8307.32
-8248.77
-8196.01
-8150.1
-8112.11
-8083.08
-8063.99
-8055.76
-8059.16
-8074.84
-8103.23
-8144.49
-8198.44
-8264.46
-8341.32
-8426.95
-8518.01
-8609.15
-8691.47
-8749.13
-8751.24
-8630.02
-8215.65
-7021.12
-7092.23
-8427.76
-8979.54
-9232.31
-9353.69
-9409.44
-9428.65
-9425.56
-9407.76
-9379.56
-9343.52
-9301.25
-9253.8
-9201.88
-9146.03
-9086.71
-9024.33
-8959.31
-8892.09
-8823.17
-8753.12
-8682.56
-8612.18
-8542.75
-8475.09
-8410.1
-8348.72
-8291.95
-8240.8
-8196.3
-8159.49
-8131.38
-8112.91
-8104.96
-8108.31
-8123.55
-8151.1
-8191.12
-8243.4
-8307.32
-8381.66
-8464.35
-8552.08
-8639.51
-8717.78
-8771.09
-8768.6
-8642.57
-8223.24
-7023.66
-7092.7
-8429.18
-8981.93
-9235.7
-9358.13
-9415
-9435.39
-9433.57
-9417.13
-9390.38
-9355.91
-9315.31
-9269.64
-9219.62
-9165.78
-9108.57
-9048.41
-8985.69
-8920.85
-8854.39
-8786.83
-8718.79
-8650.92
-8583.98
-8518.76
-8456.11
-8396.96
-8342.26
-8292.98
-8250.12
-8214.68
-8187.63
-8169.88
-8162.27
-8165.54
-8180.27
-8206.85
-8245.41
-8295.74
-8357.22
-8428.61
-8507.88
-8591.73
-8674.85
-8748.41
-8796.66
-8788.8
-8657.18
-8232.08
-7026.62
-7093.23
-8430.77
-8984.61
-9239.51
-9363.12
-9421.24
-9442.96
-9442.56
-9427.65
-9402.55
-9369.83
-9331.12
-9287.47
-9239.58
-9188.01
-9133.19
-9075.52
-9015.4
-8953.26
-8889.55
-8824.81
-8759.6
-8694.57
-8630.43
-8567.95
-8507.95
-8451.31
-8398.93
-8351.76
-8310.75
-8276.85
-8250.99
-8234.04
-8226.81
-8229.99
-8244.14
-8269.62
-8306.53
-8354.66
-8413.38
-8481.47
-8556.88
-8636.35
-8714.61
-8782.87
-8825.42
-8811.54
-8673.61
-8242.02
-7029.95
-7093.8
-8432.49
-8987.52
-9243.64
-9368.54
-9428.03
-9451.21
-9452.38
-9439.14
-9415.84
-9385.06
-9348.43
-9306.98
-9261.45
-9212.37
-9160.18
-9105.26
-9048
-8988.81
-8928.14
-8866.48
-8804.39
-8742.47
-8681.42
-8621.95
-8564.85
-8510.95
-8461.13
-8416.27
-8377.28
-8345.07
-8320.51
-8304.44
-8297.62
-8300.7
-8314.2
-8338.46
-8373.56
-8419.28
-8474.97
-8539.41
-8610.59
-8685.26
-8758.19
-8820.63
-8856.93
-8836.44
-8691.62
-8252.91
-7033.59
-7094.41
-8434.32
-8990.59
-9248.02
-9374.29
-9435.23
-9459.97
-9462.81
-9451.38
-9430.01
-9401.32
-9366.91
-9327.85
-9284.86
-9238.46
-9189.1
-9137.14
-9082.96
-9026.95
-8969.54
-8911.21
-8852.47
-8793.92
-8736.18
-8679.94
-8625.97
-8575.02
-8527.94
-8485.56
-8448.75
-8418.34
-8395.18
-8380.05
-8373.66
-8376.63
-8389.43
-8412.37
-8445.52
-8488.63
-8541.05
-8601.58
-8668.21
-8737.73
-8804.93
-8861.12
-8890.72
-8863.14
-8710.91
-8264.58
-7037.5
-7095.02
-8436.18
-8993.73
-9252.5
-9380.19
-9442.65
-9469.02
-9473.62
-9464.08
-9444.76
-9418.27
-9386.23
-9349.69
-9309.38
-9265.83
-9219.46
-9170.63
-9119.72
-9067.08
-9013.14
-8958.32
-8903.14
-8848.13
-8793.89
-8741.09
-8690.4
-8642.58
-8598.4
-8558.64
-8524.12
-8495.62
-8473.93
-8459.78
-8453.84
-8456.68
-8468.73
-8490.28
-8521.36
-8561.7
-8610.68
-8667.07
-8728.89
-8792.95
-8854.12
-8903.72
-8926.27
-8891.22
-8731.2
-8276.85
-7041.6
-7095.63
-8438.01
-8996.84
-9256.94
-9386.06
-9450.05
-9478.09
-9484.49
-9476.92
-9459.72
-9435.52
-9405.94
-9372.03
-9334.53
-9293.95
-9250.7
-9205.16
-9157.65
-9108.53
-9058.2
-9007.06
-8955.57
-8904.27
-8853.69
-8804.45
-8757.21
-8712.64
-8671.47
-8634.44
-8602.3
-8575.78
-8555.62
-8542.49
-8537.01
-8539.7
-8550.97
-8571.05
-8599.96
-8637.43
-8682.8
-8734.88
-8791.7
-8850.11
-8905
-8947.78
-8963.01
-8920.23
-8752.17
-8289.52
-7045.84
-7096.19
-8439.72
-8999.74
-9261.12
-9391.62
-9457.13
-9486.83
-9495.05
-9489.46
-9474.44
-9452.58
-9425.53
-9394.33
-9359.72
-9322.2
-9282.18
-9240.01
-9196.02
-9150.54
-9103.93
-9056.57
-9008.91
-8961.42
-8914.61
-8869.05
-8825.34
-8784.12
-8746.05
-8711.83
-8682.13
-8657.65
-8639.05
-8626.95
-8621.93
-8624.47
-8634.92
-8653.48
-8680.16
-8714.66
-8756.33
-8803.98
-8855.67
-8908.28
-8956.76
-8992.57
-9000.34
-8949.7
-8773.44
-8302.38
-7050.15
-7096.66
-8441.16
-9002.21
-9264.73
-9396.5
-9463.43
-9494.73
-9504.75
-9501.14
-9488.29
-9468.81
-9444.32
-9415.89
-9384.22
-9349.83
-9313.1
-9274.38
-9233.98
-9192.21
-9149.39
-9105.91
-9062.14
-9018.53
-8975.57
-8933.75
-8893.65
-8855.84
-8820.93
-8789.55
-8762.34
-8739.92
-8722.9
-8711.86
-8707.3
-8709.66
-8719.27
-8736.28
-8760.68
-8792.16
-8830.06
-8873.22
-8919.72
-8966.47
-9008.48
-9037.28
-9037.56
-8979.05
-8794.62
-8315.18
-7054.43
-7096.97
-8442.11
-9003.9
-9267.3
-9400.14
-9468.34
-9501.12
-9512.84
-9511.16
-9500.46
-9483.34
-9461.43
-9435.77
-9407.08
-9375.84
-9342.45
-9307.23
-9270.46
-9232.43
-9193.47
-9153.89
-9114.06
-9074.39
-9035.3
-8997.27
-8960.81
-8926.44
-8894.71
-8866.21
-8841.5
-8821.16
-8805.73
-8795.73
-8791.63
-8793.81
-8802.55
-8817.99
-8840.08
-8868.52
-8902.64
-8941.29
-8982.59
-9023.5
-9059.08
-9080.93
-9073.85
-9007.61
-8815.2
-8327.59
-7058.58
-7097
-8442.25
-9004.29
-9268.15
-9401.7
-9470.89
-9504.95
-9518.22
-9518.37
-9509.75
-9494.95
-9475.59
-9452.7
-9426.99
-9398.92
-9368.88
-9337.16
-9304.04
-9269.78
-9234.68
-9199.03
-9163.16
-9127.43
-9092.23
-9058
-9025.18
-8994.25
-8965.72
-8940.09
-8917.88
-8899.61
-8885.76
-8876.8
-8873.15
-8875.13
-8883
-8896.87
-8916.65
-8942.05
-8972.41
-9006.59
-9042.75
-9077.91
-9107.2
-9122.31
-9108.11
-9034.49
-8834.5
-8339.21
-7062.46
-7096.57
-8441.03
-9002.51
-9266.14
-9399.85
-9469.61
-9504.63
-9519.23
-9521.04
-9514.38
-9501.83
-9484.98
-9464.83
-9442.06
-9417.15
-9390.44
-9362.22
-9332.74
-9302.25
-9271.01
-9239.27
-9207.35
-9175.55
-9144.24
-9113.79
-9084.6
-9057.1
-9031.74
-9008.97
-8989.24
-8973.02
-8960.74
-8952.81
-8949.59
-8951.37
-8958.37
-8970.66
-8988.16
-9010.55
-9037.19
-9066.99
-9098.13
-9127.72
-9150.97
-9159.68
-9138.82
-9058.39
-8851.55
-8349.42
-7065.85
-7095.34
-8437.51
-8997.1
-9259.41
-9392.42
-9462.11
-9497.62
-9513.21
-9516.45
-9511.6
-9501.19
-9486.75
-9469.29
-9449.44
-9427.65
-9404.25
-9379.5
-9353.64
-9326.89
-9299.47
-9271.63
-9243.63
-9215.74
-9188.28
-9161.58
-9135.99
-9111.89
-9089.67
-9069.72
-9052.45
-9038.26
-9027.52
-9020.59
-9017.79
-9019.37
-9025.5
-9036.23
-9051.47
-9070.91
-9093.93
-9119.46
-9145.78
-9170.07
-9187.65
-9190.46
-9163.64
-9077.32
-8864.79
-8357.21
-7068.42
-7092.73
-8429.97
-8985.42
-9244.63
-9375.63
-9444.29
-9479.63
-9495.77
-9500.13
-9496.88
-9488.45
-9476.34
-9461.49
-9444.49
-9425.78
-9405.64
-9384.34
-9362.06
-9339.01
-9315.39
-9291.4
-9267.27
-9243.25
-9219.59
-9196.6
-9174.57
-9153.83
-9134.7
-9117.54
-9102.69
-9090.49
-9081.27
-9075.33
-9072.93
-9074.3
-9079.57
-9088.77
-9101.8
-9118.36
-9137.86
-9159.31
-9181.05
-9200.38
-9212.81
-9210.46
-9178.7
-9087.9
-8871.53
-8360.85
-7069.55
-7087.52
-8415.04
-8962.47
-9215.69
-9342.63
-9408.89
-9443.14
-9459.21
-9464.3
-9462.38
-9455.78
-9445.87
-9433.53
-9419.33
-9403.63
-9386.72
-9368.8
-9350.07
-9330.67
-9310.8
-9290.61
-9270.31
-9250.11
-9230.21
-9210.88
-9192.35
-9174.92
-9158.84
-9144.43
-9131.95
-9121.71
-9113.97
-9108.99
-9106.99
-9108.15
-9112.56
-9120.27
-9131.14
-9144.92
-9161.04
-9178.6
-9196.06
-9210.9
-9218.84
-9212.32
-9177.08
-9083.93
-8866.73
-8356.94
-7068.04
-7077.08
-8385.58
-8917.94
-9160.34
-9280.09
-9341.97
-9373.91
-9389.15
-9394.49
-9393.6
-9388.61
-9380.77
-9370.86
-9359.37
-9346.64
-9332.9
-9318.32
-9303.08
-9287.29
-9271.11
-9254.69
-9238.17
-9221.72
-9205.53
-9189.8
-9174.74
-9160.55
-9147.49
-9135.77
-9125.63
-9117.31
-9111.03
-9106.99
-9105.37
-9106.31
-9109.89
-9116.13
-9124.91
-9136
-9148.9
-9162.79
-9176.32
-9187.2
-9191.48
-9182.1
-9145.45
-9053.18
-8840.08
-8338.33
-7061.24
-7054.82
-8324.72
-8828.75
-9052.19
-9160
-9214.76
-9242.81
-9256.3
-9261.34
-9261.15
-9257.57
-9251.66
-9244.08
-9235.24
-9225.4
-9214.78
-9203.5
-9191.7
-9179.48
-9166.95
-9154.23
-9141.44
-9128.71
-9116.18
-9104.01
-9092.35
-9081.37
-9071.26
-9062.2
-9054.36
-9047.93
-9043.07
-9039.95
-9038.71
-9039.43
-9042.2
-9047
-9053.76
-9062.25
-9072.08
-9082.55
-9092.53
-9100.03
-9101.65
-9091.06
-9055.82
-8969.27
-8768.5
-8288.16
-7042.56
-7001.62
-8187.92
-8637.72
-8828.61
-8917.52
-8961.59
-8983.86
-8994.58
-8998.75
-8998.92
-8996.54
-8992.43
-8987.09
-8980.83
-8973.85
-8966.29
-8958.27
-8949.87
-8941.18
-8932.26
-8923.21
-8914.11
-8905.05
-8896.13
-8887.47
-8879.17
-8871.37
-8864.17
-8857.73
-8852.15
-8847.58
-8844.13
-8841.92
-8841.03
-8841.55
-8843.51
-8846.92
-8851.7
-8857.69
-8864.58
-8871.87
-8878.65
-8883.42
-8883.44
-8873.59
-8843.41
-8769.63
-8594.86
-8161.92
-6992.9
-6851.59
-7842.91
-8187.88
-8324.58
-8385.26
-8414.43
-8428.92
-8435.88
-8438.64
-8438.88
-8437.54
-8435.12
-8431.94
-8428.21
-8424.04
-8419.52
-8414.72
-8409.7
-8404.49
-8399.15
-8393.74
-8388.29
-8382.87
-8377.53
-8372.35
-8367.38
-8362.71
-8358.41
-8354.55
-8351.22
-8348.49
-8346.42
-8345.1
-8344.57
-8344.88
-8346.05
-8348.09
-8350.93
-8354.49
-8358.58
-8362.86
-8366.79
-8369.37
-8368.84
-8361.78
-8340.92
-8289.29
-8162.24
-7827.35
-6846.38
-6334.3
-6851.59
-7001.6
-7054.76
-7076.96
-7087.3
-7092.36
-7094.78
-7095.75
-7095.85
-7095.42
-7094.62
-7093.57
-7092.33
-7090.94
-7089.44
-7087.84
-7086.17
-7084.43
-7082.66
-7080.85
-7079.04
-7077.23
-7075.46
-7073.73
-7072.08
-7070.53
-7069.09
-7067.81
-7066.7
-7065.79
-7065.1
-7064.66
-7064.49
-7064.59
-7064.98
-7065.66
-7066.6
-7067.78
-7069.14
-7070.55
-7071.83
-7072.64
-7072.36
-7069.77
-7062.2
-7043.02
-6993.07
-6846.41
-6332.57
-1402.24
-2231.28
-2525.72
-2648.98
-2707.78
-2738.66
-2755.98
-2766.12
-2772.17
-2775.78
-2777.85
-2778.94
-2779.37
-2779.35
-2779.02
-2778.48
-2777.79
-2776.99
-2776.11
-2775.19
-2774.25
-2773.3
-2772.36
-2771.44
-2770.57
-2769.75
-2768.99
-2768.31
-2767.73
-2767.24
-2766.85
-2766.57
-2766.39
-2766.31
-2766.3
-2766.34
-2766.35
-2766.27
-2765.94
-2765.16
-2763.59
-2760.69
-2755.52
-2746.43
-2730.3
-2700.76
-2643.4
-2521.67
-2228.82
-1401.41
-2231.28
-3943.33
-4657.18
-4984.23
-5147.92
-5236.09
-5286.25
-5315.83
-5333.57
-5344.16
-5350.25
-5353.43
-5354.67
-5354.59
-5353.59
-5351.96
-5349.87
-5347.46
-5344.84
-5342.07
-5339.24
-5336.38
-5333.56
-5330.81
-5328.18
-5325.72
-5323.45
-5321.42
-5319.65
-5318.18
-5317.02
-5316.19
-5315.66
-5315.42
-5315.41
-5315.51
-5315.58
-5315.35
-5314.42
-5312.16
-5307.58
-5299.09
-5284
-5257.57
-5211.01
-5126.84
-4967.47
-4645.02
-3935.95
-2228.81
-2525.74
-4657.2
-5620.35
-6089.1
-6333.78
-6469.31
-6547.82
-6594.67
-6622.97
-6639.93
-6649.69
-6654.76
-6656.68
-6656.45
-6654.73
-6651.96
-6648.44
-6644.41
-6640.02
-6635.4
-6630.66
-6625.89
-6621.18
-6616.59
-6612.2
-6608.08
-6604.29
-6600.9
-6597.96
-6595.5
-6593.57
-6592.18
-6591.31
-6590.93
-6590.93
-6591.14
-6591.31
-6591.02
-6589.61
-6586.08
-6578.86
-6565.41
-6541.53
-6499.93
-6427.43
-6298.58
-6061.12
-5600.05
-4644.89
-2521.61
-2649.01
-4984.31
-6089.18
-6649.55
-6952
-7123.79
-7225.14
-7286.37
-7323.66
-7346.09
-7359
-7365.63
-7368.04
-7367.54
-7365.01
-7361.04
-7356.07
-7350.37
-7344.19
-7337.7
-7331.03
-7324.34
-7317.71
-7311.27
-7305.11
-7299.32
-7294.01
-7289.25
-7285.12
-7281.68
-7278.98
-7277.03
-7275.83
-7275.32
-7275.37
-7275.74
-7276.1
-7275.86
-7274.18
-7269.71
-7260.37
-7242.86
-7211.77
-7157.91
-7065
-6902.58
-6610.28
-6060.68
-4967.03
-2643.22
-2707.85
-5148.11
-6334.03
-6952.19
-7294.17
-7492.41
-7611.23
-7683.84
-7728.39
-7755.27
-7770.71
-7778.53
-7781.17
-7780.24
-7776.79
-7771.56
-7765.07
-7757.67
-7749.67
-7741.27
-7732.66
-7724.01
-7715.46
-7707.15
-7699.2
-7691.73
-7684.88
-7678.74
-7673.41
-7668.98
-7665.51
-7663.02
-7661.51
-7660.9
-7661.03
-7661.63
-7662.27
-7662.26
-7660.54
-7655.51
-7644.69
-7624.15
-7587.6
-7524.51
-7416.58
-7230.42
-6901.53
-6297.26
-5125.82
-2700.38
-2738.79
-5236.45
-6469.82
-7124.33
-7492.8
-7709.73
-7841.4
-7922.62
-7972.76
-8003.07
-8020.38
-8028.97
-8031.59
-8030.05
-8025.57
-8018.99
-8010.91
-8001.78
-7991.91
-7981.58
-7971
-7960.37
-7949.87
-7939.67
-7929.91
-7920.75
-7912.34
-7904.81
-7898.29
-7892.86
-7888.62
-7885.59
-7883.78
-7883.09
-7883.36
-7884.27
-7885.3
-7885.68
-7884.21
-7879.04
-7867.38
-7844.86
-7804.54
-7735
-7616.69
-7414.58
-7062.17
-6424.71
-5209.09
-2729.62
-2756.2
-5286.85
-6548.73
-7226.2
-7612.23
-7842.07
-7982.89
-8070.39
-8124.61
-8157.39
-8175.96
-8184.92
-8187.25
-8184.92
-8179.28
-8171.26
-8161.55
-8150.62
-8138.85
-8126.55
-8113.98
-8101.35
-8088.88
-8076.76
-8065.18
-8054.31
-8044.33
-8035.4
-8027.66
-8021.24
-8016.23
-8012.68
-8010.58
-8009.85
-8010.31
-8011.59
-8013.15
-8014.1
-8013.13
-8008.24
-7996.37
-7972.85
-7930.27
-7856.63
-7731.66
-7519.42
-7152.45
-6495.21
-5254.4
-2745.32
-2766.45
-5316.77
-6596.13
-7288.17
-7685.73
-7924.3
-8071.45
-8163.33
-8220.38
-8254.78
-8274.06
-8283.01
-8284.79
-8281.5
-8274.59
-8265.05
-8253.63
-8240.86
-8227.16
-8212.87
-8198.27
-8183.62
-8169.16
-8155.11
-8141.69
-8129.1
-8117.54
-8107.2
-8098.24
-8090.82
-8085.04
-8080.96
-8078.6
-8077.87
-8078.56
-8080.3
-8082.48
-8084.18
-8083.98
-8079.73
-8068.23
-8044.55
-8000.99
-7925.18
-7796.38
-7578.2
-7202.72
-6534.12
-5279.17
-2753.84
-2772.65
-5334.95
-6625.15
-7326.44
-7731.49
-7975.82
-8127.2
-8221.97
-8280.83
-8316.16
-8335.66
-8344.28
-8345.29
-8340.88
-8332.58
-8321.45
-8308.27
-8293.62
-8277.95
-8261.64
-8245
-8228.31
-8211.85
-8195.86
-8180.58
-8166.26
-8153.11
-8141.34
-8131.17
-8122.74
-8116.2
-8111.62
-8109.01
-8108.3
-8109.27
-8111.53
-8114.46
-8117.05
-8117.84
-8114.58
-8103.93
-8080.8
-8037.3
-7960.79
-7830.3
-7609.16
-7229.23
-6554.61
-5292.18
-2758.31
-2776.44
-5346.1
-6643.03
-7350.12
-7759.93
-8007.95
-8162.01
-8258.56
-8318.43
-8354.12
-8373.45
-8381.46
-8381.5
-8375.85
-8366.07
-8353.28
-8338.3
-8321.73
-8304.08
-8285.73
-8267.03
-8248.29
-8229.82
-8211.87
-8194.74
-8178.67
-8163.93
-8150.75
-8139.35
-8129.92
-8122.62
-8117.54
-8114.71
-8114.05
-8115.34
-8118.19
-8121.94
-8125.57
-8127.54
-8125.55
-8116.15
-8094.14
-8051.49
-7975.42
-7844.79
-7622.78
-7241.14
-6563.93
-5298.14
-2760.37
-2778.75
-5352.89
-6653.92
-7364.59
-7777.32
-8027.57
-8183.19
-8280.69
-8340.95
-8376.56
-8395.4
-8402.58
-8401.51
-8394.5
-8383.17
-8368.67
-8351.85
-8333.36
-8313.7
-8293.31
-8272.55
-8251.77
-8231.28
-8211.39
-8192.4
-8174.6
-8158.26
-8143.67
-8131.05
-8120.63
-8112.58
-8107.02
-8103.97
-8103.38
-8105.04
-8108.52
-8113.18
-8117.95
-8121.25
-8120.74
-8112.91
-8092.46
-8051.28
-7976.48
-7846.81
-7625.37
-7243.85
-6566.3
-5299.76
-2760.94
-2780.11
-5356.9
-6660.36
-7373.11
-7787.51
-8038.98
-8195.38
-8293.21
-8353.42
-8388.61
-8406.72
-8412.9
-8410.59
-8402.15
-8389.22
-8372.99
-8354.32
-8333.89
-8312.24
-8289.81
-8267
-8244.18
-8221.7
-8199.87
-8179.04
-8159.52
-8141.61
-8125.61
-8111.79
-8100.39
-8091.6
-8085.56
-8082.32
-8081.83
-8083.86
-8088.03
-8093.64
-8099.63
-8104.39
-8105.53
-8099.49
-8080.93
-8041.65
-7968.7
-7840.77
-7620.89
-7240.71
-6564.28
-5298.64
-2760.58
-2780.86
-5359.11
-6663.89
-7377.75
-7792.98
-8044.98
-8201.59
-8299.33
-8359.15
-8393.68
-8410.89
-8415.95
-8412.33
-8402.41
-8387.86
-8369.88
-8349.37
-8327.02
-8303.38
-8278.94
-8254.11
-8229.29
-8204.83
-8181.1
-8158.45
-8137.23
-8117.77
-8100.39
-8085.39
-8073.02
-8063.52
-8057.02
-8053.6
-8053.21
-8055.65
-8060.52
-8067.12
-8074.38
-8080.67
-8083.57
-8079.49
-8063.03
-8025.96
-7955.27
-7829.59
-7611.92
-7233.88
-6559.49
-5295.81
-2759.65
-2781.23
-5360.17
-6665.55
-7379.85
-7795.35
-8047.41
-8203.85
-8301.2
-8360.41
-8394.12
-8410.3
-8414.17
-8409.19
-8397.78
-8381.6
-8361.89
-8339.56
-8315.31
-8289.74
-8263.33
-8236.52
-8209.73
-8183.35
-8157.76
-8133.34
-8110.46
-8089.48
-8070.76
-8054.6
-8041.3
-8031.09
-8024.15
-8020.56
-8020.29
-8023.15
-8028.73
-8036.34
-8044.9
-8052.76
-8057.48
-8055.44
-8041.22
-8006.53
-7938.35
-7815.25
-7600.2
-7224.78
-6553.01
-5291.93
-2758.36
-2781.33
-5360.47
-6665.98
-7380.31
-7795.71
-8047.51
-8203.54
-8300.3
-8358.74
-8391.52
-8406.63
-8409.26
-8402.92
-8390.01
-8372.24
-8350.83
-8326.73
-8300.65
-8273.19
-8244.87
-8216.15
-8187.45
-8159.21
-8131.82
-8105.69
-8081.21
-8058.77
-8038.74
-8021.47
-8007.26
-7996.38
-7989.02
-7985.28
-7985.13
-7988.41
-7994.7
-8003.31
-8013.17
-8022.6
-8029.15
-8029.19
-8017.26
-7985.05
-7919.49
-7799.15
-7586.93
-7214.42
-6545.59
-5287.47
-2756.87
-2781.28
-5360.29
-6665.63
-7379.73
-7794.79
-8046.14
-8201.59
-8297.64
-8355.25
-8387.06
-8401.06
-8402.46
-8394.78
-8380.42
-8361.09
-8338.05
-8312.24
-8284.4
-8255.14
-8224.99
-8194.43
-8163.92
-8133.89
-8104.78
-8077.01
-8051
-8027.17
-8005.9