/*--------------------------------*- C++ -*----------------------------------*\
| =========                 |                                                 |
| \\      /  F ield         | OpenFOAM: The Open Source CFD Toolbox           |
|  \\    /   O peration     | Version:  5.x                                   |
|   \\  /    A nd           | Web:      www.OpenFOAM.org                      |
|    \\/     M anipulation  |                                                 |
\*---------------------------------------------------------------------------*/
FoamFile
{
    version     2.0;
    format      ascii;
    class       volScalarField;
    location    "0.5";
    object      gradTy;
}
// * * * * * * * * * * * * * * * * * * * * * * * * * * * * * * * * * * * * * //

dimensions      [0 -1 0 1 0 0 0];

internalField   nonuniform List<scalar> 
25000
(
5075.96
10204.2
13394.5
15686.8
17501
19037.6
20406.3
21674.4
22886.1
24072.4
25255.9
26453.1
27676
28933.1
30229.7
31568.4
32949.3
34370
35825.9
37310
38813.3
40324.5
41830.5
43316.1
44764.4
46156.9
47473.3
48692.6
49792.1
50748.9
51539.4
52139.7
52526.7
52677.5
52570.6
52185.8
51505
50512.3
49194.2
47539.8
45540.3
43188.7
40478.1
37399.2
33935.2
30052.3
25678.7
20656.6
14611.9
6553.68
2354.71
5950.98
8630
10719.8
12441
13929.5
15271.4
16523.6
17726
18907
20087.8
21284.2
22507.7
23766.5
25065.6
26407.6
27792.4
29217.6
30678.3
32167.7
33676.5
35193.6
36705.6
38197.3
39651.8
41050.4
42372.9
43598
44703.1
45665
46460.1
47064.6
47455
47608.5
47503.6
47120
46439.6
45446.6
44127.7
42472.2
40471.9
38120.6
35412.7
32341.5
28895
25049.5
20757.3
15925.2
10378.8
3839.18
1435.24
4008.62
6178.24
8009.33
9591.84
11001.8
12297.2
13521.3
14706.5
15877.6
17053.4
18248.3
19473
20735
22039.1
23387.4
24779.7
26213.3
27683.4
29182.9
30702.5
32230.8
33754.4
35258
36724.5
38135
39469.1
40705.5
41821.3
42793.1
43597.3
44209.7
44606.8
44765.7
44664.5
44283.2
43603.7
42610.2
41289.7
39632.2
37630.1
35278.9
32575.3
29516.6
26098.4
22310.9
18134.9
13537.5
8475.4
2932.76
1031.76
2996.99
4777.92
6371.6
7809.13
9129.23
10368
11556.3
12719.2
13877.1
15046.1
16239
17465.2
18731.7
20042.6
21399.7
22802.4
24248
25731.3
27245
28779.7
30323.9
31863.8
33384.2
34867.5
36294.8
37645.4
38897.7
40028.7
41014.8
41831.7
42455.5
42862.2
43028.7
42933.1
42555.3
41877.1
40882.9
39560.3
37899.8
35895
33543.1
30843.6
27798.7
24411.3
20684.6
16621.9
12227.9
7518.86
2547.75
815.057
2405.78
3907.6
5306.93
6612.84
7844.66
9024.54
10173.8
11311.6
12454.3
13615.3
14805.6
16033.6
17305.3
18624.3
19991.8
21407.2
22867.1
24366.2
25897.2
27450.2
29013.6
30573.5
32114.2
33618.1
35065.9
36436.8
37708.7
38858.3
39861.8
40694.6
41332.4
41751.1
41927.1
41838.7
41465.3
40789
39794.4
38469.4
36805.2
34796.9
32443.2
29746.7
26713.7
23353.7
19679.8
15709.8
11468.6
6995.05
2353.65
681.892
2027.8
3329.38
4575.93
5769.82
6921.44
8044.9
9155.29
10267.1
11393.5
12545.6
13732.8
14962.3
16239.3
17566.7
18945.4
20374.2
21849.6
23366
24915.7
26488.8
28073.3
29655.1
31218.2
32744.9
34215.4
35608.7
36902.3
38072.8
39095.8
39946.5
40600.2
41032.4
41219.6
41139.4
40771.5
40097.9
39103.4
37776.2
36108.5
34096.2
31740
29044.9
26020.8
22682.3
19049.3
15148.2
11013.5
6691.9
2245.58
592.555
1769.27
2924.33
4051.77
5152.91
6234.45
7306.24
8379.52
9465.61
10575.1
11717.5
12900.7
14130.8
15412.2
16747.3
18136.6
19578.4
21068.9
22602.3
24170.6
25763.7
27369.3
28973.1
30558.9
32108.6
33602.3
35018.5
36334.4
37526.4
38569.5
39438.9
40109.3
40556
40755.1
40684.2
40322.8
39652.9
38659.5
37331.2
35660.7
33645.1
31286.7
28592.4
25574.9
22252.4
18649.3
14796.9
10734.3
6509.77
2181.87
528.809
1582.86
2627.77
3661.55
4686.27
5707.42
6732.77
7771.27
8832.2
9924.41
11055.9
12233.4
13462.4
14746.3
16087.2
17484.9
18937.6
20441.2
21989.5
23574.3
25185.3
26810
28433.9
30040.5
31611.5
33126.6
34564.2
35901.2
37113.4
38175.9
39063.3
39750.1
40211.2
40422.6
40361.7
40007.8
39342.9
38352.2
37024.7
35353.6
33337
30978.2
28285.9
25274.7
21965.5
18385.4
14568.3
10555.3
6394.76
2142.07
481.022
1442.23
2401.69
3360.35
4321.44
5290.29
6273.74
7279.5
8315.53
9389.46
10508.3
11677.8
12902.7
14186.1
15529.2
16931.9
18391.6
19904.2
21463.4
23060.5
24685.3
26324.9
27964.6
29587.9
31176.1
32708.9
34164.3
35519
36748.6
37827.8
38731.1
39432.7
39907.3
40130.6
40080
39734.6
39076.5
38091
36767.4
35099.5
33085.8
30730.8
28044.3
25042.5
21747.7
18188.8
14401.3
10426.9
6313.49
2114.19
443.532
1331.42
2222.15
3118.76
4025.59
4948.19
5893.06
6867.26
7877.91
8931.87
10035.3
11193.5
12410.3
13688.5
15029.1
16431.3
17892.5
19408.3
20972.1
22575.3
24207.3
25855.3
27504.4
29137.9
30737
32281.3
33748.7
35115.7
36357.7
37449.4
38365
39078.5
39564.6
39798.9
39758.6
39422.8
38773.7
37796.8
36481.6
34822.1
32817.7
30473.3
27799.7
24813.9
21539.4
18006.1
14250
10313.1
6242.65
2090.11
412.715
1240.01
2073.12
2916.51
3775.4
4655.7
5563.82
6506.48
7490.3
8521.58
9605.95
10748.1
11951.7
13218.8
14550.2
15944.9
17400.2
18911.3
20471.6
22072.4
23703
25350.5
27000.2
28635.1
30236.5
31784
33255.4
34627.2
35874.8
36972.9
37895.6
38617
39111.7
39355.3
39325
39000
38362.7
37398.7
36097.6
34453.9
32467.3
30143.2
27492.9
24534.1
21290.7
17793.2
14077.7
10185.9
6164.55
2063.76
386.103
1160.85
1943.31
2738.97
3553.67
4393.63
5265.3
6175.17
7129.57
8134.39
9194.85
10315.3
11498.9
12747.6
14061.8
15440.4
16880.5
18377.1
19923.8
21511.7
23130.1
24766.2
26405.3
28030.6
29623.5
31163.6
32628.9
33996.1
35240.7
36337.5
37260.7
37984.6
38484
38734.6
38713.8
38401
37778.7
36832.7
35553
33934.2
31976.4
29685.1
27072.1
24155.3
20958.7
17512.9
13853.7
10022.5
6065.01
2030.33
361.927
1088.74
1824.48
2575.26
3347.35
4147.17
4981.2
5855.79
6777.03
7750.5
8781.12
9872.88
11028.7
12250.3
13537.9
14890.2
16304.2
17775
19296
20858.5
22452
24063.7
25679.2
27281.8
28853.3
30373.5
31820.7
33172
34403.1
35489.3
36405.1
37125.1
37624.4
37879.3
37867.2
37568
36964.5
36042.7
34792.8
33209.9
31294
29051
26492.5
23636.4
20506.9
17133.7
13552.6
9803.89
5932.39
1985.87
338.884
1019.85
1710.44
2417.11
3146.37
3904.73
4698.64
5534.29
6417.56
7353.78
8347.58
9402.71
10521.9
11706.5
12956.7
14271.2
15646.8
17078.7
18560.5
20083.6
21637.6
23210.2
24787.2
26352.3
27887.7
29373.7
30789.2
32111.6
33317.5
34382.4
35281.7
35990.4
36484.3
36739.9
36735.6
36451.6
35871
34980.4
33770.2
32235.6
30376.9
28199.8
25716
22943.1
19904.6
16629.8
13153.3
9514.72
5757.23
1927.21
315.998
951.297
1596.5
2258.21
2942.99
3657.31
4407.48
5199.55
6039.13
6931.31
7880.45
8890.07
9962.64
11099.5
12300.6
13564.5
14888.3
16267.3
17695
19163.2
20662
22179.3
23701.4
25212.7
26696
28132.1
29500.8
30780.3
31947.8
32979.8
33852.4
34541.6
35023.9
35276.8
35279.1
35011.8
34458.8
33606.9
32447.1
30974.7
29190
27098.8
24712.3
22047.6
19127.5
15980.3
12639.4
9142.78
5532.1
1851.83
292.544
880.926
1479.18
2093.83
2731.34
3398.03
4100
4843.02
5632.47
6473.13
7369.11
8323.67
9339.11
10416.6
11556.1
12756.1
14013.8
15324.7
16682.5
18079.6
19506.2
20951.1
22401.1
23841.3
25255.3
26624.9
27930.8
29152.2
30267.4
31254
32089.2
32750.1
33214.3
33460.3
33468
33219.3
32698.6
31893.6
30795.5
29400.1
27707.7
25723.7
23459
20929.7
18157.8
15170.2
11998.6
8679.22
5251.58
1757.93
267.999
807.187
1355.93
1920.53
2507.19
3121.94
3770.58
4458.56
5190.91
5972.13
6806.01
7695.58
8642.94
9649.14
10714.1
11836.4
13013.2
14240.4
15512.2
16821.2
18158.4
19513.1
20873.1
22224.3
23551.4
24837.3
26063.8
27211.5
28260
29188.3
29974.9
30598.4
31037.8
31272.8
31284.5
31056
30572.6
29822.8
28798.5
27495.5
25914.1
24059.6
21942.1
19576.9
16984.4
14190
11223.4
8118.5
4912.31
1644.36
242.012
729.041
1225.07
1736.02
2267.71
2825.77
3415.58
4042.21
4710.28
5423.93
6186.64
7001.16
7869.39
8792.28
9769.69
10800.3
11881.6
13009.6
14179
15383
16613.4
17860.2
19112.2
20356.5
21579
22763.8
23894.4
24952.7
25920.1
26777
27503.8
28080.8
28488.4
28708.2
28722.6
28516
28075
27388.9
26450.1
25255
23803.8
22101.3
20156.8
17984.6
15603.3
13036.3
10311
7458.56
4513.02
1510.7
214.382
645.897
1085.65
1539.05
2011.39
2507.81
3033.19
3592.1
4188.73
4826.78
5509.38
6239
7017.32
7845.16
8722.4
9647.84
10619.2
11632.8
12684
13766.6
14873.2
15994.9
17121.5
18241.4
19341.9
20409
21427.4
22381
23253.1
24026
24682.1
25203.5
25572.8
25773.1
25788.9
25605.9
25212.1
24597.9
23756.4
22684.3
21381.9
19853.5
18107.4
16156.4
14017.5
11711.6
9263.37
6700.8
4054.54
1357.23
185.043
557.564
937.373
1329.26
1737.89
2167.79
2623.26
3108.32
3626.62
4181.41
4775.42
5410.8
6089
6810.74
7575.88
8383.38
9231.19
10116.2
11034.3
11980
12946.8
13927.1
14911.8
15891
16853.3
17786.6
18677.6
19512.1
20275.5
20952.5
21527.5
21985
22309.6
22486.6
22502.5
22344.7
22002.7
21468
20734.8
19800.1
18664.1
17330.6
15806.9
14104.2
12237.2
10224.3
8087.12
5849.99
3539.75
1184.91
154.046
464.204
780.545
1107.13
1447.92
1806.73
2187.2
2592.71
3026.37
3490.88
3988.54
4521.16
5089.96
5695.52
6337.74
7015.71
7727.72
8471.16
9242.51
10037.2
10849.9
11673.9
12501.9
13325.3
14134.7
14919.8
15669.5
16371.9
17014.6
17584.8
18069.3
18455
18729.2
18879.4
18894.1
18762.9
18476.9
18028.9
17414
16629.7
15676.2
14556.7
13277.2
11847.3
10279.2
8588.56
6793.34
4914.15
2973.5
995.365
121.545
366.289
615.981
873.867
1143.11
1426.78
1727.75
2048.74
2392.2
2760.3
3154.87
3577.33
4028.66
4509.31
5019.19
5557.6
6123.15
6713.78
7326.68
7958.26
8604.17
9259.23
9917.48
10572.2
11215.9
11840.3
12436.7
12995.5
13507
13960.9
14346.7
14654.2
14872.9
14993.2
15005.8
14902.4
14675.9
14320.7
13832.8
13210.3
12453.2
11564.2
10548
9412.14
8166.54
6823.42
5397.22
3904.25
2362.43
790.815
87.7811
264.55
444.928
631.284
825.924
1031.07
1248.84
1481.2
1729.93
1996.61
2282.56
2588.83
2916.1
3264.73
3634.63
4025.29
4435.71
4864.39
5309.28
5767.79
6236.74
6712.39
7190.41
7665.9
8133.43
8587.03
9020.29
9426.35
9798.05
10128
10408.5
10632.2
10791.4
10879.2
10888.8
10814.2
10650.3
10392.8
10039.1
9587.52
9038.28
8393.17
7655.76
6831.47
5927.46
4952.64
3917.49
2833.86
1714.75
574.007
53.0643
159.927
268.986
381.681
499.416
623.544
755.345
896.016
1046.64
1208.18
1381.43
1567.02
1765.38
1976.72
2200.98
2437.85
2686.73
2946.71
3216.54
3494.65
3779.11
4067.65
4357.65
4646.13
4929.8
5205.04
5467.96
5714.4
5940
6140.27
6310.62
6446.44
6543.24
6596.66
6602.67
6557.6
6458.33
6302.36
6087.95
5814.21
5481.21
5090.04
4642.89
4143.03
3594.81
3003.63
2375.85
1718.66
1039.96
348.122
17.7552
53.512
90.0061
127.721
167.127
208.679
252.808
299.912
350.357
404.463
462.5
524.677
591.137
661.95
737.098
816.478
899.885
987.014
1077.45
1170.66
1266
1362.72
1459.92
1556.62
1651.71
1743.98
1832.11
1914.73
1990.36
2057.5
2114.62
2160.16
2192.62
2210.55
2212.58
2197.5
2164.24
2111.99
2040.14
1948.41
1836.82
1705.73
1555.89
1388.37
1204.65
1006.54
796.166
575.936
348.496
116.658
-17.7549
-53.5112
-90.0041
-127.717
-167.121
-208.669
-252.791
-299.889
-350.326
-404.422
-462.448
-524.613
-591.06
-661.859
-736.993
-816.358
-899.75
-986.864
-1077.29
-1170.48
-1265.82
-1362.52
-1459.72
-1556.41
-1651.5
-1743.77
-1831.91
-1914.53
-1990.18
-2057.33
-2114.47
-2160.04
-2192.53
-2210.49
-2212.56
-2197.51
-2164.3
-2112.08
-2040.27
-1948.58
-1837.02
-1705.96
-1556.13
-1388.62
-1204.89
-1006.76
-796.35
-576.077
-348.583
-116.688
-53.0642
-159.927
-268.985
-381.678
-499.411
-623.534
-755.331
-895.995
-1046.61
-1208.14
-1381.38
-1566.96
-1765.31
-1976.63
-2200.88
-2437.74
-2686.6
-2946.57
-3216.38
-3494.48
-3778.93
-4067.46
-4357.45
-4645.93
-4929.6
-5204.84
-5467.76
-5714.2
-5939.82
-6140.11
-6310.47
-6446.33
-6543.15
-6596.61
-6602.65
-6557.62
-6458.39
-6302.46
-6088.08
-5814.37
-5481.4
-5090.26
-4643.13
-4143.27
-3595.04
-3003.84
-2376.03
-1718.8
-1040.04
-348.151
-87.7812
-264.55
-444.928
-631.282
-825.921
-1031.07
-1248.83
-1481.18
-1729.91
-1996.58
-2282.52
-2588.77
-2916.03
-3264.65
-3634.53
-4025.18
-4435.59
-4864.26
-5309.14
-5767.63
-6236.57
-6712.21
-7190.22
-7665.71
-8133.24
-8586.84
-9020.1
-9426.17
-9797.88
-10127.8
-10408.4
-10632
-10791.4
-10879.2
-10888.8
-10814.2
-10650.3
-10392.9
-10039.2
-9587.68
-9038.47
-8393.38
-7655.99
-6831.7
-5927.68
-4952.85
-3917.66
-2833.99
-1714.83
-574.035
-121.545
-366.29
-615.982
-873.868
-1143.11
-1426.77
-1727.74
-2048.73
-2392.18
-2760.28
-3154.84
-3577.29
-4028.6
-4509.24
-5019.11
-5557.5
-6123.05
-6713.67
-7326.55
-7958.12
-8604.01
-9259.06
-9917.32
-10572
-11215.7
-11840.2
-12436.5
-12995.4
-13506.9
-13960.7
-14346.6
-14654.1
-14872.9
-14993.1
-15005.7
-14902.4
-14675.9
-14320.8
-13833
-13210.4
-12453.4
-11564.3
-10548.2
-9412.35
-8166.75
-6823.61
-5397.38
-3904.38
-2362.51
-790.841
-154.047
-464.207
-780.549
-1107.13
-1447.92
-1806.73
-2187.2
-2592.71
-3026.35
-3490.86
-3988.52
-4521.13
-5089.91
-5695.47
-6337.67
-7015.63
-7727.63
-8471.06
-9242.4
-10037.1
-10849.8
-11673.8
-12501.8
-13325.2
-14134.6
-14919.7
-15669.4
-16371.8
-17014.5
-17584.6
-18069.2
-18455
-18729.1
-18879.4
-18894.1
-18762.9
-18476.9
-18029
-17414.1
-16629.9
-15676.4
-14556.8
-13277.4
-11847.5
-10279.4
-8588.73
-6793.49
-4914.27
-2973.57
-995.389
-185.044
-557.568
-937.379
-1329.26
-1737.9
-2167.8
-2623.27
-3108.32
-3626.62
-4181.4
-4775.41
-5410.77
-6088.97
-6810.7
-7575.83
-8383.32
-9231.12
-10116.1
-11034.2
-11979.9
-12946.7
-13927
-14911.7
-15890.8
-16853.2
-17786.5
-18677.4
-19512
-20275.4
-20952.4
-21527.4
-21984.9
-22309.5
-22486.6
-22502.5
-22344.7
-22002.7
-21468.1
-20734.9
-19800.2
-18664.3
-17330.8
-15807.1
-14104.4
-12237.4
-10224.5
-8087.25
-5850.09
-3539.81
-1184.93
-214.384
-645.903
-1085.66
-1539.06
-2011.41
-2507.83
-3033.2
-3592.11
-4188.74
-4826.78
-5509.38
-6238.99
-7017.3
-7845.14
-8722.37
-9647.8
-10619.1
-11632.8
-12683.9
-13766.6
-14873.1
-15994.8
-17121.4
-18241.3
-19341.8
-20408.9
-21427.3
-22380.9
-23253
-24025.9
-24682
-25203.5
-25572.8
-25773.1
-25788.9
-25606
-25212.2
-24597.9
-23756.5
-22684.4
-21382
-19853.6
-18107.5
-16156.6
-14017.7
-11711.7
-9263.48
-6700.89
-4054.59
-1357.25
-242.014
-729.048
-1225.08
-1736.04
-2267.73
-2825.79
-3415.6
-4042.23
-4710.3
-5423.94
-6186.65
-7001.16
-7869.39
-8792.27
-9769.68
-10800.3
-11881.6
-13009.6
-14179
-15383
-16613.3
-17860.2
-19112.2
-20356.5
-21578.9
-22763.8
-23894.3
-24952.7
-25920
-26777
-27503.8
-28080.7
-28488.4
-28708.2
-28722.6
-28516
-28075
-27388.9
-26450.2
-25255.1
-23803.9
-22101.4
-20157
-17984.7
-15603.4
-13036.4
-10311.1
-7458.63
-4513.06
-1510.71
-268.002
-807.196
-1355.94
-1920.55
-2507.21
-3121.97
-3770.6
-4458.59
-5190.94
-5972.15
-6806.03
-7695.6
-8642.96
-9649.15
-10714.1
-11836.4
-13013.2
-14240.4
-15512.2
-16821.2
-18158.4
-19513.1
-20873.1
-22224.3
-23551.3
-24837.2
-26063.8
-27211.5
-28260
-29188.3
-29974.9
-30598.4
-31037.8
-31272.8
-31284.5
-31056
-30572.7
-29822.9
-28798.5
-27495.5
-25914.2
-24059.7
-21942.2
-19577
-16984.5
-14190.1
-11223.5
-8118.55
-4912.35
-1644.37
-292.548
-880.936
-1479.19
-2093.85
-2731.37
-3398.06
-4100.03
-4843.06
-5632.5
-6473.16
-7369.14
-8323.71
-9339.15
-10416.6
-11556.1
-12756.2
-14013.8
-15324.7
-16682.6
-18079.6
-19506.2
-20951.1
-22401.1
-23841.3
-25255.3
-26624.9
-27930.8
-29152.2
-30267.4
-31254
-32089.2
-32750.1
-33214.3
-33460.3
-33468
-33219.3
-32698.6
-31893.6
-30795.6
-29400.2
-27707.8
-25723.8
-23459
-20929.8
-18157.9
-15170.2
-11998.6
-8679.25
-5251.61
-1757.93
-316.002
-951.308
-1596.52
-2258.23
-2943.02
-3657.34
-4407.52
-5199.59
-6039.17
-6931.36
-7880.5
-8890.12
-9962.69
-11099.5
-12300.6
-13564.6
-14888.4
-16267.3
-17695
-19163.3
-20662
-22179.3
-23701.4
-25212.8
-26696
-28132.2
-29500.8
-30780.3
-31947.8
-32979.8
-33852.4
-34541.6
-35023.9
-35276.8
-35279.1
-35011.8
-34458.8
-33606.9
-32447.1
-30974.7
-29190.1
-27098.8
-24712.4
-22047.6
-19127.5
-15980.3
-12639.4
-9142.8
-5532.11
-1851.84
-338.888
-1019.86
-1710.46
-2417.13
-3146.4
-3904.77
-4698.68
-5534.34
-6417.61
-7353.84
-8347.64
-9402.77
-10521.9
-11706.6
-12956.8
-14271.2
-15646.8
-17078.8
-18560.6
-20083.7
-21637.7
-23210.3
-24787.2
-26352.4
-27887.7
-29373.8
-30789.2
-32111.7
-33317.6
-34382.5
-35281.7
-35990.4
-36484.3
-36740
-36735.6
-36451.6
-35871
-34980.4
-33770.2
-32235.6
-30376.9
-28199.8
-25716
-22943.1
-19904.6
-16629.8
-13153.3
-9514.72
-5757.23
-1927.21
-361.931
-1088.75
-1824.5
-2575.28
-3347.38
-4147.21
-4981.25
-5855.84
-6777.08
-7750.56
-8781.18
-9872.95
-11028.8
-12250.4
-13538
-14890.3
-16304.3
-17775.1
-19296.1
-20858.6
-22452
-24063.8
-25679.2
-27281.9
-28853.4
-30373.5
-31820.8
-33172
-34403.2
-35489.3
-36405.1
-37125.1
-37624.5
-37879.3
-37867.2
-37568
-36964.5
-36042.7
-34792.8
-33209.9
-31294
-29051
-26492.5
-23636.4
-20506.8
-17133.7
-13552.5
-9803.88
-5932.38
-1985.87
-386.107
-1160.86
-1943.33
-2739
-3553.71
-4393.67
-5265.34
-6175.22
-7129.63
-8134.45
-9194.91
-10315.3
-11499
-12747.7
-14061.9
-15440.5
-16880.5
-18377.2
-19923.9
-21511.8
-23130.2
-24766.3
-26405.4
-28030.7
-29623.6
-31163.7
-32629
-33996.2
-35240.8
-36337.5
-37260.7
-37984.6
-38484
-38734.6
-38713.8
-38401
-37778.7
-36832.7
-35553
-33934.2
-31976.4
-29685.1
-27072.1
-24155.2
-20958.7
-17512.8
-13853.6
-10022.5
-6064.99
-2030.32
-412.719
-1240.02
-2073.13
-2916.53
-3775.43
-4655.73
-5563.87
-6506.53
-7490.36
-8521.64
-9606.01
-10748.2
-11951.7
-13218.9
-14550.3
-15945
-17400.2
-18911.3
-20471.7
-22072.5
-23703.1
-25350.6
-27000.3
-28635.2
-30236.6
-31784.1
-33255.4
-34627.3
-35874.9
-36973
-37895.7
-38617
-39111.7
-39355.3
-39325
-39000
-38362.7
-37398.6
-36097.5
-34453.8
-32467.2
-30143.1
-27492.8
-24534
-21290.7
-17793.1
-14077.6
-10185.9
-6164.52
-2063.76
-443.535
-1331.42
-2222.16
-3118.78
-4025.61
-4948.22
-5893.1
-6867.3
-7877.96
-8931.92
-10035.4
-11193.5
-12410.4
-13688.6
-15029.2
-16431.3
-17892.6
-19408.4
-20972.2
-22575.4
-24207.4
-25855.4
-27504.5
-29138
-30737.1
-32281.4
-33748.8
-35115.8
-36357.8
-37449.5
-38365
-39078.6
-39564.7
-39799
-39758.6
-39422.8
-38773.7
-37796.8
-36481.5
-34822
-32817.6
-30473.2
-27799.6
-24813.8
-21539.3
-18006
-14250
-10313.1
-6242.61
-2090.1
-481.024
-1442.24
-2401.7
-3360.36
-4321.46
-5290.31
-6273.77
-7279.54
-8315.56
-9389.51
-10508.3
-11677.9
-12902.8
-14186.1
-15529.3
-16931.9
-18391.7
-19904.3
-21463.5
-23060.7
-24685.4
-26325
-27964.8
-29588
-31176.2
-32709
-34164.4
-35519.1
-36748.7
-37827.9
-38731.2
-39432.7
-39907.3
-40130.7
-40080
-39734.6
-39076.4
-38090.9
-36767.3
-35099.4
-33085.7
-30730.7
-28044.2
-25042.3
-21747.6
-18188.7
-14401.2
-10426.8
-6313.44
-2114.17
-528.809
-1582.87
-2627.77
-3661.55
-4686.28
-5707.44
-6732.79
-7771.29
-8832.22
-9924.44
-11055.9
-12233.5
-13462.4
-14746.4
-16087.2
-17485
-18937.7
-20441.2
-21989.6
-23574.4
-25185.4
-26810.1
-28434
-30040.6
-31611.6
-33126.7
-34564.3
-35901.3
-37113.5
-38176
-39063.4
-39750.1
-40211.2
-40422.6
-40361.7
-40007.7
-39342.8
-38352.1
-37024.6
-35353.5
-33336.9
-30978
-28285.7
-25274.6
-21965.3
-18385.2
-14568.2
-10555.2
-6394.72
-2142.05
-592.554
-1769.27
-2924.33
-4051.76
-5152.91
-6234.45
-7306.25
-8379.53
-9465.62
-10575.2
-11717.6
-12900.7
-14130.8
-15412.2
-16747.4
-18136.7
-19578.4
-21069
-22602.4
-24170.7
-25763.8
-27369.4
-28973.2
-30559
-32108.7
-33602.4
-35018.6
-36334.5
-37526.4
-38569.6
-39438.9
-40109.3
-40556
-40755.1
-40684.2
-40322.8
-39652.8
-38659.4
-37331.1
-35660.5
-33645
-31286.5
-28592.2
-25574.7
-22252.2
-18649.2
-14796.8
-10734.2
-6509.71
-2181.85
-681.89
-2027.79
-3329.37
-4575.91
-5769.81
-6921.42
-8044.88
-9155.28
-10267.1
-11393.5
-12545.6
-13732.8
-14962.3
-16239.3
-17566.7
-18945.4
-20374.2
-21849.6
-23366.1
-24915.8
-26488.9
-28073.3
-29655.2
-31218.3
-32744.9
-34215.5
-35608.8
-36902.4
-38072.9
-39095.9
-39946.6
-40600.3
-41032.5
-41219.6
-41139.4
-40771.5
-40097.9
-39103.3
-37776.1
-36108.3
-34096.1
-31739.8
-29044.8
-26020.7
-22682.1
-19049.2
-15148
-11013.4
-6691.84
-2245.56
-815.052
-2405.76
-3907.58
-5306.9
-6612.8
-7844.62
-9024.51
-10173.8
-11311.6
-12454.2
-13615.3
-14805.6
-16033.6
-17305.3
-18624.3
-19991.9
-21407.2
-22867.1
-24366.3
-25897.2
-27450.3
-29013.7
-30573.6
-32114.3
-33618.2
-35066
-36436.9
-37708.7
-38858.4
-39861.8
-40694.7
-41332.5
-41751.1
-41927.2
-41838.6
-41465.2
-40788.9
-39794.3
-38469.3
-36805.1
-34796.7
-32443
-29746.5
-26713.5
-23353.5
-19679.7
-15709.7
-11468.5
-6994.98
-2353.63
-1031.76
-2996.98
-4777.89
-6371.56
-7809.08
-9129.18
-10368
-11556.3
-12719.2
-13877
-15046.1
-16238.9
-17465.2
-18731.7
-20042.5
-21399.7
-22802.4
-24248
-25731.3
-27245
-28779.8
-30323.9
-31863.9
-33384.2
-34867.6
-36294.8
-37645.5
-38897.8
-40028.8
-41014.8
-41831.8
-42455.6
-42862.2
-43028.7
-42933.1
-42555.2
-41877
-40882.9
-39560.2
-37899.6
-35894.9
-33542.9
-30843.5
-27798.5
-24411.1
-20684.5
-16621.7
-12227.8
-7518.79
-2547.73
-1435.23
-4008.6
-6178.21
-8009.29
-9591.78
-11001.8
-12297.1
-13521.2
-14706.5
-15877.6
-17053.4
-18248.3
-19473
-20735
-22039
-23387.3
-24779.6
-26213.3
-27683.4
-29183
-30702.6
-32230.9
-33754.5
-35258.1
-36724.6
-38135
-39469.2
-40705.5
-41821.3
-42793.2
-43597.3
-44209.8
-44606.8
-44765.7
-44664.5
-44283.2
-43603.7
-42610.1
-41289.6
-39632
-37630
-35278.7
-32575.1
-29516.4
-26098.2
-22310.7
-18134.8
-13537.4
-8475.33
-2932.74
-2354.7
-5950.96
-8629.96
-10719.8
-12440.9
-13929.4
-15271.3
-16523.6
-17725.9
-18906.9
-20087.7
-21284.1
-22507.6
-23766.4
-25065.6
-26407.6
-27792.4
-29217.6
-30678.3
-32167.7
-33676.6
-35193.6
-36705.6
-38197.4
-39651.9
-41050.5
-42373
-43598.1
-44703.2
-45665.1
-46460.2
-47064.7
-47455
-47608.6
-47503.6
-47119.9
-46439.6
-45446.5
-44127.6
-42472.1
-40471.8
-38120.4
-35412.5
-32341.3
-28894.8
-25049.3
-20757.2
-15925.1
-10378.8
-3839.15
-5075.95
-10204.2
-13394.5
-15686.7
-17500.9
-19037.5
-20406.2
-21674.3
-22886
-24072.3
-25255.8
-26453
-27675.9
-28933
-30229.6
-31568.4
-32949.3
-34370
-35825.9
-37310
-38813.3
-40324.6
-41830.6
-43316.2
-44764.5
-46156.9
-47473.4
-48692.7
-49792.2
-50749
-51539.4
-52139.8
-52526.8
-52677.6
-52570.6
-52185.8
-51505
-50512.3
-49194.2
-47539.7
-45540.2
-43188.6
-40477.9
-37399
-33935.1
-30052.1
-25678.6
-20656.5
-14611.9
-6553.66
2359.13
5963.4
8649.2
10744.7
12470.6
13963.1
15308.2
16563.1
17767.4
18949.8
20131.6
21328.4
22551.9
23810.1
25108.4
26449.1
27832.3
29255.5
30713.9
32200.7
33706.7
35220.7
36729.4
38217.6
39668.5
41063.4
42382.2
43603.5
44704.9
45663.3
46455
47056.3
47443.9
47594.9
47487.9
47102.7
46421.3
45427.8
44108.9
42453.9
40454.8
38105
35399.1
32330.3
28886.3
25043.4
20753.8
15923.7
10378.7
3839.38
1680.33
4596.82
6968.03
8913.89
10563.2
12013.5
13334.1
14574.3
15769.9
16947.3
18126.5
19322.6
20546.8
21806.8
23107.6
24451.7
25838.7
27266.3
28729.7
30221.7
31733.3
33253.1
34767.8
36262.2
37719.3
39120.4
40445.2
41672.3
42779.3
43742.8
44539.1
45144.6
45535.6
45689.4
45584.3
45200.3
44519.2
43525.4
42205.6
40549.5
38549.3
36199.5
33495.8
30433.5
27004.6
23193.2
18968.5
14275.7
9032.25
3167.34
1227.71
3514.8
5518.88
7257.74
8788.37
10168.5
11446.5
12660.4
13839.8
15007.8
16182.3
17377.1
18602.5
19865.9
21171.7
22522.1
23916.6
25352.8
26825.5
28327.7
29850.1
31381.1
32907.5
34413.8
35882.8
37295.8
38632.2
39870.7
40988.3
41961.8
42767.2
43380.6
43778.3
43937.4
43836.2
43454.5
42774.2
41779.8
40458.3
38799.9
36797.7
34447.5
31747
28695.4
25290.9
21529.2
17400.6
12890.7
7989.2
2727.79
953.216
2790.36
4483.38
6020.79
7423.17
8721.51
9946.94
11127.1
12285.4
13440.8
14609
15802
17029.1
18297
19609.7
20969
22374.1
23822.1
25308.1
26824.5
28362
29909
31451.7
32974.8
34460.7
35890.5
37243.5
38497.9
39630.8
40618.4
41436.7
42061.4
42468.7
42635.5
42539.8
42161.4
41482.4
40487.3
39163.5
37501.9
35496.6
33144.9
30447.5
27407.4
24029.6
20320.7
16288.5
11946
7319.92
2471.79
779.916
2308.25
3762.17
5127.53
6410.4
7627.03
8797.18
9940.47
11074.8
12215.7
13376.3
14567.1
15796.2
17069.4
18390.3
19760
21177.7
22640.2
24142.1
25675.8
27231.6
28797.8
30360.5
31904
33410.5
34860.9
36234.1
37508.1
38659.7
39664.8
40498.9
41137.7
41556.9
41733.3
41644.6
41270.7
40593.5
39597.8
38271.5
36606
34596.6
32242.5
29546.8
26516.5
23162.4
19499.6
15548.1
11336
6905.32
2321.13
664.201
1977.35
3251.93
4477.92
5657
6798.38
7915.07
9021.25
10130.7
11256.1
12408.2
13596.1
14826.9
16105.5
17434.9
18815.9
20247.1
21725.1
23244.3
24796.8
26372.7
27960.1
29544.7
31110.6
32640
34113.1
35508.8
36804.6
37977
39001.6
39853.7
40508.4
40941.2
41128.6
41048.2
40679.7
40005.2
39009.4
37680.7
36011.3
33997.6
31640.2
28944.8
25921.6
22586
18959
15068.1
10949.1
6649.34
2230.54
582.955
1741.51
2880.94
3995.91
5087.68
6162.55
7229.88
8300.42
9385.11
10494.3
11637
12821.2
14052.7
15335.9
16673.2
18064.7
19509
21002.2
22538.4
24109.5
25705.5
27314
28920.7
30509.3
32061.7
33558
34976.6
36294.8
37488.7
38533.5
39404.2
40075.6
40522.9
40722.2
40651.2
40289.1
39618.2
38623.3
37293.3
35621
33603.5
31243.2
28547.6
25529.4
22207.6
18606.9
14759.2
10704.1
6490
2174.95
523.382
1567.05
2602.8
3629.07
4648.01
5665
6687.6
7724.53
8784.83
9877.17
11009.4
12188.2
13418.7
14704.6
16047.6
17447.8
18903
20409.2
21960.3
23548
25162
26789.6
28416.4
30025.9
31599.6
33117.3
34557.4
35896.6
37110.8
38175
39063.7
39751.5
40213.3
40424.9
40363.7
40009.1
39343.1
38350.9
37021.6
35348.4
33329.5
30968.3
28273.8
25260.8
21950.5
18370.2
14554.1
10543.6
6387.05
2139.35
477.921
1433.17
2387.3
3341.54
4299.22
5265.66
6247.61
7252.68
8288.69
9363.19
10483
11654
12880.7
14166
15511.4
16916.5
18378.9
19894.2
21456.2
23056.3
24683.9
26326.5
27969.2
29595.3
31186.3
32721.7
34179.6
35536.5
36768.1
37849.1
38753.7
39456.3
39931.5
40155.1
40104.2
39758.1
39098.8
38111.7
36786.1
35115.8
33099.6
30741.8
28052.5
25047.9
21750.7
18189.9
14401
10426
6312.58
2113.82
441.799
1326.35
2214.1
3108.26
4013.25
4934.64
5878.92
6853.08
7864.19
8919.04
10023.7
11183.5
12402.2
13682.5
15025.4
16430
17893.9
19412.4
20979.1
22585.2
24220.2
25871.1
27523.2
29159.5
30761.5
32308.4
33778.3
35147.5
36391.6
37485
38401.9
39116.5
39603.2
39837.7
39797
39460.5
38810.3
37831.7
36514.3
34852.4
32845.1
30497.6
27820.6
24831.5
21553.7
18017.2
14258.1
10318.6
6245.78
2091.13
411.817
1237.39
2068.99
2911.2
3769.29
4649.21
5557.37
6500.46
7485.09
8517.51
9603.31
10747.2
11952.7
13221.9
14555.7
15952.9
17410.8
18924.7
20487.8
22091.5
23725.1
25375.6
27028.2
28666
30270.2
31820.3
33294.1
34668.2
35917.9
37017.7
37941.8
38664.2
39159.5
39403.2
39372.6
39047
38408.4
37442.6
36139.3
34493
32503.4
30175.9
27522
24559.3
21312
17810.4
14090.9
10195.3
6170.12
2065.61
385.725
1159.76
1941.65
2736.95
3551.54
4391.68
5263.82
6174.46
7129.91
8136.04
9198.06
10320.3
11505.9
12756.8
14073.3
15454.4
16897.1
18396.5
19946
21536.8
23158.1
24797.2
26439.2
28067.4
29663
31205.7
32673.5
34042.9
35289.5
36388
37312.6
38037.5
38537.5
38788.3
38767.1
38453.6
37830.1
36882.3
35600.4
33978.9
32017.9
29723.1
27106.3
24185.2
20984.3
17533.9
13870.1
10034.2
6072.05
2032.68
361.877
1088.62
1824.39
2575.32
3347.76
4148.13
4982.92
5858.51
6780.95
7755.85
8788.1
9881.69
11039.5
12263.3
13553.3
14908
16324.6
17798.1
19321.9
20887.2
22483.6
24098.2
25716.5
27322
28896.1
30418.9
31868.6
33222.1
34455.2
35543
36460.1
37181.2
37681.1
37936.1
37923.7
37623.8
37019
36095.4
34843.4
33257.7
31338.7
29092
26529.5
23669.1
20534.9
17157
13570.8
9816.98
5940.27
1988.51
339.039
1020.34
1711.32
2418.48
3148.37
3907.52
4702.37
5539.15
6423.72
7361.43
8356.89
9413.84
10535
11721.8
12974.3
14291.1
15669.3
17103.9
18588.4
20114.2
21671.1
23246.5
24826.2
26394.1
27932.1
29420.6
30838.5
32163.1
33370.9
34437.5
35338
36047.7
36542.1
36798
36793.4
36508.6
35926.8
35034.4
33822
32284.7
30422.8
28242.1
25754.3
22977
19933.8
16654
13172.4
9528.46
5765.52
1929.98
316.276
952.146
1597.97
2260.37
2945.94
3661.18
4412.4
5205.66
6046.58
6940.26
7891.05
8902.46
9976.98
11115.9
12319.2
13585.5
14911.7
16293.2
17723.5
19194.5
20695.9
22215.9
23740.8
25254.7
26740.5
28179.1
29550.1
30831.6
32001
33034.6
33908.4
34598.6
35081.4
35334.4
35336.4
35068.5
34514.2
33660.6
32498.7
31023.6
29235.9
27141.1
24750.7
22081.6
19156.9
16004.7
12658.6
9156.65
5540.48
1854.63
292.889
881.974
1480.96
2096.42
2734.81
3402.47
4105.52
4849.75
5640.53
6482.66
7380.24
8336.54
9353.85
10433.3
11574.9
12777.2
14037.2
15350.5
16710.8
18110.4
19539.7
20987.1
22439.6
23882.4
25298.8
26670.7
27978.8
29202.2
30319.1
31307.3
32143.7
32805.4
33270.2
33516.3
33523.7
33274.3
32752.5
31945.8
30845.7
29447.8
27752.4
25765
23496.4
20963
18186.5
15194
12017.4
8692.8
5259.79
1760.67
268.373
808.319
1357.85
1923.29
2510.85
3126.58
3776.29
4465.45
5199.09
5981.7
6817.11
7708.32
8657.44
9665.51
10732.4
11856.8
13035.8
14265.3
15539.4
16850.8
18190.4
19547.6
20909.9
22263.5
23592.8
24880.9
26109.4
27259
28309.2
29238.9
30026.6
30651
31090.8
31325.9
31337.4
31108.2
30623.8
29872.5
28846.2
27540.8
25956.6
24098.9
21977.7
19608.6
17011.8
14212.8
11241.4
8131.47
4920.15
1646.98
242.387
730.175
1226.99
1738.76
2271.33
2830.33
3421.17
4048.9
4718.19
5433.14
6197.26
7013.3
7883.16
8807.78
9787.01
10819.6
11902.8
13032.9
14204.5
15410.7
16643.3
17892.3
19146.5
20393
21617.5
22804.4
23936.8
24996.8
25965.7
26824
27551.8
28129.5
28537.7
28757.5
28771.7
28564.5
28122.5
27435
26494.4
25297.1
23843.3
22137.8
20190
18014
15628.8
13057.5
10327.8
7470.65
4520.33
1513.15
214.738
646.973
1087.46
1541.64
2014.8
2512.1
3038.42
3598.35
4196.07
4835.31
5519.19
6250.18
7029.96
7859.37
8738.25
9665.42
10638.5
11654.1
12707.2
13791.8
14900.3
16024
17152.6
18274.5
19376.9
20445.7
21465.8
22420.9
23294.4
24068.5
24725.5
25247.6
25617.3
25817.8
25833.3
25649.8
25255.1
24639.6
23796.5
22722.4
21417.7
19886.5
18137.4
16183.1
14040.6
11730.8
9278.55
6711.76
4061.16
1359.45
185.365
558.537
939.013
1331.59
1740.96
2171.64
2627.95
3113.9
3633.18
4189.01
4784.14
5420.72
6100.2
6823.3
7589.89
8398.89
9248.28
10134.9
11054.7
12002.1
12970.7
13952.7
14939.1
15920
16884
17818.8
18711.2
19547.2
20311.8
20989.8
21565.6
22023.7
22348.6
22525.8
22541.4
22383.2
22040.4
21504.6
20770
19833.6
18695.5
17359.6
15833.3
14127.6
12257.5
10241.2
8100.45
5859.62
3545.57
1186.86
154.323
465.04
781.954
1109.13
1450.55
1810.02
2191.2
2597.48
3031.95
3497.35
3995.96
4529.59
5099.46
5706.17
6349.59
7028.83
7742.17
8486.99
9259.74
10055.9
10870
11695.5
12525
13349.8
14160.6
14947
15697.9
16401.4
17045.1
17616.1
18101.4
18487.6
18762.1
18912.4
18927
18795.4
18508.7
18059.8
17443.7
16657.9
15702.7
14581.1
13299.5
11867
10296.3
8602.8
6804.59
4922.28
2978.41
997.009
121.768
366.963
617.116
875.481
1145.23
1429.43
1730.97
2052.57
2396.68
2765.49
3160.81
3584.07
4036.26
4517.82
5028.66