/*--------------------------------*- C++ -*----------------------------------*\
| =========                 |                                                 |
| \\      /  F ield         | OpenFOAM: The Open Source CFD Toolbox           |
|  \\    /   O peration     | Version:  5.x                                   |
|   \\  /    A nd           | Web:      www.OpenFOAM.org                      |
|    \\/     M anipulation  |                                                 |
\*---------------------------------------------------------------------------*/
FoamFile
{
    version     2.0;
    format      ascii;
    class       volScalarField;
    location    "0.5";
    object      gradTx;
}
// * * * * * * * * * * * * * * * * * * * * * * * * * * * * * * * * * * * * * //

dimensions      [0 -1 0 1 0 0 0];

internalField   nonuniform List<scalar> 
25000
(
5076.77
2358.73
1445.73
1051.99
848.34
731.599
662.09
621.595
600.469
592.985
595.398
605.038
619.851
638.146
658.455
679.446
699.875
718.558
734.353
746.157
752.899
753.55
747.126
732.698
709.403
676.458
633.174
578.975
513.412
436.183
347.151
246.361
134.054
10.6742
-123.123
-266.484
-418.376
-577.632
-743.021
-913.371
-1087.75
-1265.76
-1448.1
-1637.49
-1840.72
-2073.37
-2372.78
-2840.15
-3803.13
-6546.42
10203.4
5959.84
4036.87
3054.46
2502.43
2173.74
1974.73
1858.13
1797.56
1776.87
1785.29
1815.06
1860.14
1915.52
1976.86
2040.17
2101.75
2158.04
2205.64
2241.23
2261.6
2263.67
2244.47
2201.23
2131.34
2032.47
1902.54
1739.81
1542.95
1311.04
1043.67
740.995
403.724
33.2073
-368.58
-799.057
-1255.1
-1733.18
-2229.53
-2740.57
-3263.34
-3796.42
-4341.39
-4905.39
-5506.2
-6183.17
-7022.94
-8226.62
-10299.8
-14619.2
13382.5
8634.02
6214.59
4862.97
4057.99
3561.98
3256.24
3076.2
2983.8
2954.81
2972.61
3024.94
3102.13
3196.06
3299.61
3406.25
3509.82
3604.45
3684.48
3744.37
3778.8
3782.62
3750.88
3678.95
3562.48
3397.56
3180.74
2909.11
2580.44
2193.2
1746.73
1241.25
677.998
59.239
-611.696
-1330.45
-2091.73
-2889.54
-3717.44
-4569.17
-5439.38
-6324.98
-7227.2
-8155.21
-9132.71
-10211
-11497.1
-13218.6
-15889.1
-20764.4
15647.2
10702.8
8037.59
6468.06
5494.91
4879.13
4494.21
4267.45
4153.89
4123.77
4156.01
4234.63
4346.8
4481.57
4629.23
4780.76
4927.68
5061.82
5175.27
5260.32
5309.5
5315.59
5271.69
5171.27
5008.25
4777.12
4473.04
4091.93
3630.64
3087.06
2460.23
1750.53
959.679
90.9251
-850.995
-1859.87
-2928.14
-4047.15
-5207.59
-6400.17
-7616.62
-8851.31
-10103.7
-11382.3
-12711.9
-14146.6
-15796.3
-17886.1
-20904.5
-26027.3
17411.2
12380.2
9589.19
7894.18
6815.62
6120.9
5683.32
5427.36
5304.57
5281.71
5334.5
5444.05
5594.84
5773.4
5967.59
6166.09
6358.14
6533.31
6681.49
6792.81
6857.66
6866.75
6811.2
6682.58
6473.06
6175.53
5783.72
5292.39
4697.47
3996.24
3187.48
2271.7
1251.18
130.165
-1085.12
-2386.52
-3764.05
-5206.25
-6700.63
-8234.49
-9796.08
-11376.3
-12971.6
-14587.6
-16246.7
-18000.4
-19953.8
-22321.6
-25569.3
-30831
18868.1
13795.4
10938.7
9173.29
8032.64
7290.83
6823.4
6554.55
6434.32
6427.42
6507.36
6652.98
6846.49
7072.2
7315.76
7563.65
7802.9
8020.91
8205.38
8344.29
8425.91
8438.88
8372.31
8215.86
7959.94
7595.81
7115.79
6513.43
5783.74
4923.39
3930.91
2806.95
1554.39
178.523
-1312.87
-2909.55
-4599.01
-6366.72
-8196.78
-10072.7
-11978.7
-13901.5
-15833.2
-17775.3
-19745.7
-21790.5
-24007.6
-26600.9
-30019.4
-35376
20120.9
15027.7
12137.3
10334.6
9161.14
8395.98
7917.17
7649.58
7542.74
7560.19
7673.85
7860.78
8101.31
8377.75
8673.71
8973.59
9262.31
9525.14
9747.62
9915.6
10015.2
10033
9956.17
9772.36
9470.22
9039.37
8470.68
7756.5
6890.9
5869.94
4691.91
3357.61
1870.56
237.161
-1533.17
-3428.04
-5432.2
-7527.92
-9695.57
-11914.5
-14164.5
-16427.6
-18690.7
-20950.2
-23218.3
-25534.5
-27989.6
-30777.9
-34337.2
-39768.5
21229.9
16127.2
13221.2
11401.9
10215.3
9444.17
8968.47
8713.92
8629.94
8679.35
8832.91
9066.24
9358
9688.73
10040.1
10394.7
10735.2
11044.8
11307.1
11505.7
11624.6
11648.3
11562
11351.4
11003.3
10505.7
9847.98
9021.32
8018.82
6835.92
5470.66
3924.04
2200.23
306.792
-1745.14
-3940.89
-6262.39
-8688.47
-11195.6
-13758.7
-16352.6
-18954.2
-21545
-24115.3
-26671.3
-29245.9
-31922.6
-34888
-38571.8
-44067.7
22232.6
17126.6
14216
12393.1
11207
10442.5
9981.02
9749.01
9695.87
9783.89
9982.89
10267.3
10614.2
11002.6
11412.3
11824
12218.5
12577
12880.7
13111.4
13250.9
13281.7
13186.7
12949.9
12556.3
11992.1
11245.3
10305.7
9165.64
7819.79
6266.03
4505.52
2543.14
387.655
-1948.02
-4446.85
-7087.79
-9846.12
-12694.2
-15602.2
-18540
-21478.8
-24394.2
-27270.6
-30107.6
-32931.7
-35819.7
-38951.4
-42750.4
-48305.4
23153.2
18047.8
15139.3
13321.6
12145.3
11396.5
10957.7
10755.7
10739.9
10872.1
11121.3
11460.7
11866.2
12315.2
12785.9
13257.1
13707.6
14116.6
14463.4
14727.6
14888.9
14927.7
14825
14562.8
14124.2
13493.8
12658.1
11605.6
10327.7
8818.43
7075.49
5100.23
2898.22
479.5
-2141.2
-4944.39
-7905.96
-10997.5
-14187.1
-17440.3
-20721.3
-23995.8
-27233.3
-30412
-33524.9
-36592.3
-39684.6
-42975.9
-46884.5
-52495.4
24007.5
18905.2
16003.3
14196.6
13036.4
12309.9
11900.1
11733.9
11760.5
11941.3
12244.5
12642.3
13109.3
13621.3
14155.1
14687.4
15195.5
15656.6
16047.8
16346.6
16530.9
16578.8
16469.3
16182.5
15699.7
15003.8
14079.7
12914.8
11499.4
9827.04
7895.09
5705.18
3263.57
581.598
-2324.14
-5431.68
-8713.78
-12138.3
-15668.9
-19266
-22888.8
-26496.8
-30053.6
-33530.8
-36915.4
-40221.1
-43512.7
-46958.8
-50973.4
-56638.1
24805.9
19708.2
16815.8
15023.9
13884.4
13184.9
12808.5
12682.2
12755
12987.7
13347.8
13806.4
14336.9
14913.8
15512.1
16107
16673.9
17188
17624.5
17959
18167
18224.9
18109.6
17799.2
17273.1
16512.7
15501.3
14225.1
12673.4
10839.2
8719.54
6316.3
3636.51
692.764
-2496.44
-5906.62
-9507.35
-13262.7
-17131.9
-21070.5
-25032
-28970.2
-32842.5
-36614.1
-40265.8
-43805.4
-47291.8
-50889
-55006.7
-60723.7
25554.5
20462.5
17581.5
15806.9
14691.1
14021.6
13681.6
13598.1
13719.7
14006.6
14425.4
14946.3
15541.6
16184.3
16847.9
17506.1
18132.3
18699.9
19182.3
19552.9
19785.4
19854
19733.7
19400.7
18832.7
18009.2
16912.2
15526.6
13840.8
11847
9542.21
6928.49
4013.58
811.385
-2657.73
-6366.74
-10282.1
-14364
-18567.3
-22842.6
-27137.9
-31401.1
-35583.5
-39644.2
-43557.8
-47326.2
-51003.1
-54747.5
-58965.6
-64733.5
26256.6
21170.8
18302.4
16546.8
15456.4
14818.7
14517.1
14478
14649.7
14991.8
15470.2
16054
16714.4
17423
18152
18873.3
19558.7
20179.8
20708.1
21115
21372.2
21452.1
21327.7
20973.3
20364.8
19480.1
18299.8
16807.5
14990.8
12841.1
10355.3
7535.7
4390.69
935.477
-2807.69
-6809.31
-11032.7
-15434.3
-19964.6
-24569.3
-29191
-33771.8
-38257
-42599.7
-46768.5
-50759.7
-54621.7
-58509.2
-62824.7
-68641.9
26913.2
21834
18978.7
17242.9
16178.7
15573.8
15311.2
15317.1
15539.2
15936.6
16474.3
17120.6
17845.4
18619.1
19412.6
20196.1
20939.8
21613.7
22187.2
22630
22912
23003.6
22875.8
22501.3
21854.1
20910.7
19650.1
18054.9
16111.6
13811.1
11150.1
8131.08
4763.14
1062.74
-2946.06
-7231.33
-11753.3
-16464.8
-21312.1
-26235.9
-31173.7
-36062
-40840.2
-45455.7
-49871.1
-54077.4
-58118.1
-62143.6
-66553.1
-72417.9
27523.8
22451.3
19609.3
17893.3
16855.5
16283.2
16059.3
16109.7
16381.5
16833.1
17428.9
18136.2
18923.8
19760.9
20617
21461
22261.4
22986.4
23604
24082
24388.3
24491.5
24361.2
23967.9
23284.2
22284.9
20948
19254.5
17190.3
14745.7
11917.1
8707.2
5125.83
1190.62
-3072.61
-7629.6
-12437.6
-17446
-22596.9
-27826.3
-33066.8
-38249.5
-43308.2
-48184.5
-52835.8
-57247.8
-61459.2
-65616.5
-70115.7
-76025.9
28086.7
23020.6
20191.6
18495
17482.9
16942.5
16756.2
16849.5
17169.3
17673.2
18324.8
19090.6
19938.3
20836.1
21752.1
22653.8
23508.4
24282.4
24942.1
25453.7
25783.6
25898.4
25766
25355.5
24637.7
23586.2
22177.4
20391.5
18213.4
15632.9
12646.2
9256.2
5473.35
1316.42
-3187.12
-8000.77
-13079
-18367.9
-23805.5
-29323.7
-34850.1
-40310.7
-45634.2
-50756.8
-55630.7
-60236.6
-64609.1
-68890.6
-73474.4
-79427.4
28599
23539.2
20722.6
19044.5
18056.9
17546.6
17395.9
17530
17895
18448.2
19152.4
19973.1
20877.3
21832.1
22804.2
23760.1
24665.5
25485.4
26184.8
26728.1
27080.2
27206.2
27072.3
26646.1
25897.1
24797.4
23322.2
21450.8
19167.1
16460.6
13327.2
9770.06
5800.15
1437.32
-3289.4
-8341.46
-13670.8
-19220.2
-24924.2
-30710.7
-36502.7
-42221.5
-47790.9
-53142.2
-58222.7
-63008.8
-67530.7
-71927.5
-76589.8
-82582.5
29057.7
24003.7
21198.6
19537.7
18572.7
18090.4
17972.6
18144.2
18551
19149.6
19902.1
20773.3
21729.4
22736.4
23760.1
24765.7
25717.6
26579.8
27315.6
27888.1
28260.7
28397.2
28262.3
27822.2
27045
25901.6
24366.3
22417.2
20037.7
17216.7
13950
10240.8
6100.73
1550.56
-3379.28
-8648.34
-14206.2
-19992.8
-25939.4
-31970
-38003.8
-43957.7
-49750.9
-55310.4
-60579
-65528.9
-70186.8
-74688.6
-79422.3
-85451.1
29459.3
24410.5
21615.8
19970.3
19025.6
18568.4
18480.2
18685.5
19129.7
19768.9
20564.6
21481.1
22483.5
23537.2
24606.9
25656.9
26650.4
27550.3
28318.6
28917.3
29308.5
29454.5
29318.9
28866.6
28064.7
26882.8
25294.2
23276.5
20812.1
17889.7
14504.8
10660.8
6369.78
1653.43
-3456.6
-8918.21
-14678.8
-20675.9
-26837.8
-33085.2
-39333.5
-45496
-51487.9
-57232.1
-62667.6
-67762.9
-72541.4
-77136.4
-81933.4
-87994.3
29800.3
24756
21970.3
20338.2
19411.2
18975.7
18913.1
19147.6
19624.1
20298.4
21131.4
22086.9
23129.4
24223.3
25332.8
26421
27450.5
28382.9
29179.3
29800.7
30207.8
30362.2
30226.2
29763.7
28940.6
27725.9
26091.8
24015.2
21478.1
18468.7
14982.5
11022.8
6602.39
1743.44
-3521.25
-9148.12
-15082.8
-21260.6
-27607.3
-34040.7
-40473.3
-46814.9
-52977.4
-58880.1
-64458.8
-69679
-74561.1
-79236
-84087.4
-90175.8
30077.6
25037
22258.7
20637.6
19725.2
19307.7
19266.2
19524.7
20027.9
20731.1
21594.9
22582.5
23657.9
24784.9
25927.1
27046.9
28105.9
29065.1
29884.7
30524.7
30945.2
31106.5
30970.3
30499.4
29659.2
28417.6
26746.3
24621.5
22024.9
18944.3
15375
11320.7
6794.16
1818.35
-3573.1
-9335.45
-15412.9
-21738.8
-28237
-34823
-41406.6
-47895.1
-54197.3
-60230.1
-65926.3
-71248.8
-76215.8
-80956.2
-85852.2
-91963.2
30288.2
25250.5
22477.9
20865.3
19964.1
19560.4
19535.1
19812
20335.7
21061.1
21948.5
22960.7
24061.3
25213.8
26381
27525
28606.7
29586.4
30423.8
31078.2
31508.8
31675.6
31539.2
31062.1
30208.8
28946.7
27247
25085.5
22443.4
19308.4
15675.7
11549
6941.4
1876.26
-3612.08
-9477.98
-15664.5
-22103.7
-28717.7
-35420.3
-42119.4
-48720.2
-55129.4
-61261.5
-67047.5
-72448.3
-77480.3
-82270.8
-87200.8
-93329
30429.9
25394.1
22625.4
21018.6
20125
19730.6
19716.3
20005.8
20543.3
21283.7
22187.1
23216
24333.8
25503.5
26687.7
27847.9
28945
29938.7
30788.1
31452.2
31889.8
32060.2
31923.8
31442.5
30580.3
29304.4
27585.6
25399.3
22726.5
19554.8
15879.2
11703.6
7041.22
1915.72
-3638.1
-9574
-15834.2
-22350
-29042.3
-35823.8
-42600.9
-49277.6
-55759
-61958.4
-67805.1
-73258.8
-78334.6
-83159
-88112
-94251.9
30501.2
25466.4
22699.6
21095.8
20206
19816.3
19807.6
20103.3
20647.8
21395.8
22307.3
23344.7
24471
25649.4
26842.2
28010.7
29115.5
30116.2
30971.7
31640.7
32081.8
32254.1
32117.7
31634.2
30767.7
29484.8
27756.4
25557.6
22869.3
19679
15981.9
11781.6
7091.62
1935.69
-3651.14
-9622.32
-15919.7
-22474
-29205.8
-36027.1
-42843.6
-49558.5
-56076.4
-62309.6
-68186.9
-73667.3
-78765.3
-83606.7
-88571.3
-94717.1
30501.2
25466.4
22699.6
21095.8
20206
19816.3
19807.6
20103.3
20647.8
21395.8
22307.3
23344.7
24471
25649.4
26842.2
28010.7
29115.5
30116.2
30971.7
31640.7
32081.8
32254.1
32117.7
31634.2
30767.7
29484.8
27756.4
25557.6
22869.3
19679
15981.9
11781.6
7091.61
1935.68
-3651.15
-9622.34
-15919.7
-22474.1
-29205.9
-36027.1
-42843.6
-49558.5
-56076.4
-62309.6
-68186.9
-73667.3
-78765.2
-83606.6
-88571.3
-94717.1
30429.9
25394.1
22625.4
21018.6
20125
19730.6
19716.4
20005.8
20543.3
21283.7
22187.1
23216
24333.8
25503.5
26687.7
27848
28945
29938.7
30788.1
31452.2
31889.8
32060.2
31923.8
31442.5
30580.3
29304.4
27585.6
25399.3
22726.5
19554.8
15879.2
11703.6
7041.17
1915.67
-3638.16
-9574.06
-15834.3
-22350
-29042.3
-35823.8
-42601
-49277.6
-55759
-61958.4
-67805.1
-73258.7
-78334.6
-83158.9
-88111.9
-94251.8
30288.2
25250.5
22477.9
20865.3
19964.1
19560.4
19535.1
19812.1
20335.7
21061.1
21948.5
22960.7
24061.4
25213.9
26381.1
27525
28606.7
29586.4
30423.8
31078.2
31508.8
31675.6
31539.2
31062.1
30208.8
28946.7
27247
25085.5
22443.4
19308.4
15675.7
11549
6941.33
1876.18
-3612.17
-9478.08
-15664.6
-22103.8
-28717.8
-35420.4
-42119.5
-48720.2
-55129.4
-61261.5
-67047.5
-72448.3
-77480.2
-82270.6
-87200.7
-93328.9
30077.6
25037
22258.7
20637.6
19725.2
19307.7
19266.2
19524.7
20027.9
20731.1
21594.9
22582.5
23657.9
24785
25927.1
27046.9
28105.9
29065.1
29884.7
30524.8
30945.2
31106.5
30970.3
30499.4
29659.2
28417.6
26746.3
24621.5
22024.9
18944.2
15375
11320.6
6794.06
1818.23
-3573.23
-9335.58
-15413
-21738.9
-28237.1
-34823.1
-41406.7
-47895.1
-54197.4
-60230.1
-65926.2
-71248.7
-76215.7
-80956.1
-85852
-91963
29800.3
24756
21970.3
20338.2
19411.2
18975.8
18913.2
19147.6
19624.2
20298.4
21131.5
22087
23129.4
24223.4
25332.8
26421.1
27450.5
28382.9
29179.4
29800.7
30207.9
30362.3
30226.3
29763.7
28940.6
27725.9
26091.8
24015.2
21478
18468.6
14982.4
11022.7
6602.26
1743.3
-3521.4
-9148.29
-15083
-21260.8
-27607.4
-34040.9
-40473.4
-46815
-52977.4
-58880.1
-64458.8
-69678.9
-74561
-79235.8
-84087.1
-90175.5
29459.3
24410.5
21615.8
19970.3
19025.7
18568.4
18480.3
18685.6
19129.8
19768.9
20564.7
21481.1
22483.6
23537.2
24607
25656.9
26650.5
27550.4
28318.7
28917.4
29308.5
29454.5
29318.9
28866.6
28064.7
26882.8
25294.2
23276.4
20812
17889.6
14504.6
10660.6
6369.63
1653.27
-3456.78
-8918.4
-14679
-20676.1
-26838
-33085.3
-39333.7
-45496.1
-51488
-57232.1
-62667.5
-67762.8
-72541.3
-77136.1
-81933.1
-87994
29057.7
24003.7
21198.6
19537.7
18572.7
18090.4
17972.6
18144.3
18551.1
19149.6
19902.1
20773.4
21729.5
22736.5
23760.2
24765.8
25717.7
26579.9
27315.6
27888.2
28260.8
28397.3
28262.4
27822.2
27045
25901.6
24366.2
22417.1
20037.6
17216.6
13949.9
10240.6
6100.56
1550.37
-3379.48
-8648.55
-14206.4
-19993
-25939.6
-31970.2
-38003.9
-43957.8
-49751
-55310.4
-60578.9
-65528.7
-70186.6
-74688.3
-79422
-85450.8
28599
23539.2
20722.6
19044.5
18056.9
17546.6
17396
17530
17895.1
18448.3
19152.5
19973.2
20877.4
21832.2
22804.3
23760.2
24665.6
25485.5
26184.9
26728.2
27080.3
27206.3
27072.4
26646.2
25897.1
24797.4
23322.1
21450.7
19167
16460.5
13327.1
9769.89
5799.97
1437.12
-3289.62
-8341.69
-13671
-19220.4
-24924.4
-30710.9
-36502.8
-42221.6
-47791
-53142.2
-58222.6
-63008.6
-67530.4
-71927.2
-76589.5
-82582.2
28086.7
23020.6
20191.6
18495
17482.9
16942.5
16756.2
16849.6
17169.4
17673.3
18324.9
19090.7
19938.4
20836.2
21752.2
22653.9
23508.5
24282.5
24942.2
25453.8
25783.6
25898.5
25766.1
25355.5
24637.7
23586.2
22177.3
20391.5
18213.3
15632.8
12646.1
9256.03
5473.15
1316.2
-3187.35
-8001.01
-13079.3
-18368.1
-23805.7
-29323.9
-34850.3
-40310.9
-45634.3
-50756.8
-55630.6
-60236.5
-64608.8
-68890.3
-73474
-79427
27523.8
22451.3
19609.3
17893.3
16855.5
16283.3
16059.4
16109.7
16381.5
16833.2
17429
18136.3
18923.9
19761
20617.1
21461.1
22261.5
22986.5
23604.1
24082
24388.4
24491.6
24361.2
23967.9
23284.2
22284.9
20947.9
19254.5
17190.2
14745.6
11917
8707.02
5125.63
1190.4
-3072.85
-7629.85
-12437.9
-17446.3
-22597.1
-27826.5
-33067
-38249.6
-43308.3
-48184.5
-52835.7
-57247.6
-61458.9
-65616.1
-70115.3
-76025.5
26913.2
21834
18978.7
17242.9
16178.7
15573.9
15311.2
15317.1
15539.2
15936.6
16474.4
17120.7
17845.4
18619.2
19412.7
20196.2
20939.9
21613.8
22187.3
22630.1
22912.1
23003.6
22875.9
22501.3
21854.1
20910.6
19650.1
18054.9
16111.5
13811
11150
8130.9
4762.94
1062.51
-2946.31
-7231.59
-11753.6
-16465.1
-21312.3
-26236.1
-31173.8
-36062.1
-40840.3
-45455.7
-49871
-54077.2
-58117.8
-62143.3
-66552.7
-72417.5
26256.5
21170.8
18302.3
16546.8
15456.4
14818.7
14517.1
14478
14649.8
14991.9
15470.2
16054.1
16714.4
17423.1
18152.1
18873.4
19558.8
20179.9
20708.1
21115
21372.3
21452.2
21327.8
20973.3
20364.8
19480.1
18299.8
16807.5
14990.7
12841
10355.2
7535.52
4390.48
935.251
-2807.93
-6809.57
-11033
-15434.6
-19964.9
-24569.5
-29191.1
-33771.9
-38257.1
-42599.7
-46768.4
-50759.5
-54621.4
-58508.8
-62824.3
-68641.5
25554.4
20462.4
17581.4
15806.9
14691.1
14021.6
13681.6
13598.2
13719.7
14006.6
14425.4
14946.4
15541.7
16184.3
16848
17506.2
18132.4
18700
19182.4
19553
19785.5
19854.1
19733.8
19400.8
18832.7
18009.2
16912.1
15526.5
13840.7
11846.9
9542.07
6928.32
4013.39
811.165
-2657.97
-6366.99
-10282.3
-14364.3
-18567.6
-22842.8
-27138.1
-31401.3
-35583.6
-39644.2
-43557.7
-47326
-51002.8
-54747.1
-58965.2
-64733
24805.8
19708.2
16815.8
15023.9
13884.4
13184.9
12808.5
12682.2
12755
12987.8
13347.9
13806.5
14337
14913.9
15512.2
16107.1
16674
17188.1
17624.6
17959.1
18167.1
18225
18109.7
17799.2
17273.1
16512.7
15501.3
14225.1
12673.4
10839.1
8719.41
6316.14
3636.32
692.553
-2496.67
-5906.86
-9507.6
-13263
-17132.1
-21070.7
-25032.2
-28970.4
-32842.5
-36614.1
-40265.7
-43805.2
-47291.6
-50888.6
-55006.3
-60723.3
24007.5
18905.2
16003.3
14196.5
13036.4
12309.9
11900.1
11733.9
11760.5
11941.3
12244.5
12642.3
13109.3
13621.4
14155.1
14687.5
15195.6
15656.7
16047.9
16346.7
16531
16578.8
16469.4
16182.6
15699.7
15003.8
14079.6
12914.7
11499.3
9826.94
7894.97
5705.03
3263.4
581.4
-2324.36
-5431.91
-8714.01
-12138.5
-15669.1
-19266.2
-22889
-26497
-30053.7
-33530.8
-36915.3
-40221
-43512.4
-46958.5
-50973.1
-56637.7
23153.1
18047.8
15139.3
13321.6
12145.2
11396.5
10957.7
10755.7
10739.9
10872.1
11121.3
11460.8
11866.3
12315.3
12786
13257.1
13707.6
14116.7
14463.5
14727.6
14889
14927.8
14825.1
14562.9
14124.2
13493.8
12658.1
11605.6
10327.6
8818.35
7075.37
5100.09
2898.05
479.317
-2141.4
-4944.6
-7906.18
-10997.8
-14187.4
-17440.4
-20721.4
-23995.9
-27233.4
-30412
-33524.8
-36592.1
-39684.3
-42975.6
-46884.2
-52495
22232.5
17126.6
14215.9
12393.1
11207
10442.5
9981.01
9749.02
9695.9
9783.93
9982.94
10267.3
10614.2
11002.6
11412.4
11824.1
12218.6
12577.1
12880.8
13111.5
13251
13281.7
13186.8
12950
12556.3
11992.1
11245.3
10305.7
9165.59
7819.72
6265.93
4505.4
2542.99
387.489
-1948.2
-4447.05
-7087.99
-9846.32
-12694.3
-15602.4
-18540.1
-21478.9
-24394.3
-27270.6
-30107.5
-32931.6
-35819.5
-38951.1
-42750.1
-48305
21229.8
16127.1
13221.2
11401.8
10215.3
9444.14
8968.46
8713.92
8629.96
8679.38
8832.95
9066.29
9358.06
9688.8
10040.2
10394.7
10735.3
11044.9
11307.2
11505.7
11624.7
11648.4
11562
11351.4
11003.3
10505.7
9847.98
9021.3
8018.78
6835.85
5470.58
3923.94
2200.1
306.646
-1745.3
-3941.07
-6262.57
-8688.66
-11195.8
-13758.8
-16352.8
-18954.3
-21545
-24115.3
-26671.2
-29245.8
-31922.4
-34887.8
-38571.5
-44067.4
20120.8
15027.6
12137.3
10334.6
9161.09
8395.95
7917.16
7649.58
7542.75
7560.21
7673.88
7860.83
8101.36
8377.81
8673.77
8973.66
9262.38
9525.21
9747.69
9915.66
10015.3
10033.1
9956.22
9772.41
9470.25
9039.39
8470.68
7756.49
6890.87
5869.89
4691.84
3357.52
1870.45
237.034
-1533.31
-3428.19
-5432.36
-7528.08
-9695.73
-11914.7
-14164.7
-16427.7
-18690.8
-20950.2
-23218.2
-25534.4
-27989.4
-30777.7
-34337
-39768.3
18868
13795.3
10938.7
9173.24
8032.59
7290.8
6823.38
6554.54
6434.32
6427.44
6507.39
6653.02
6846.53
7072.25
7315.81
7563.71
7802.96
8020.97
8205.45
8344.36
8425.97
8438.94
8372.35
8215.9
7959.97
7595.83
7115.8
6513.42
5783.72
4923.35
3930.86
2806.87
1554.3
178.417
-1312.99
-2909.68
-4599.14
-6366.86
-8196.91
-10072.8
-11978.8
-13901.6
-15833.2
-17775.3
-19745.7
-21790.4
-24007.5
-26600.7
-30019.2
-35375.8
17411.1
12380.1
9589.13
7894.13
6815.58
6120.87
5683.3
5427.36
5304.58
5281.73
5334.52
5444.08
5594.88
5773.44
5967.64
6166.15
6358.19
6533.37
6681.55
6792.86
6857.71
6866.8
6811.25
6682.62
6473.09
6175.55
5783.73
5292.39
4697.45
3996.21
3187.44
2271.64
1251.1
130.078
-1085.22
-2386.63
-3764.17
-5206.36
-6700.74
-8234.59
-9796.17
-11376.4
-12971.6
-14587.6
-16246.7
-18000.3
-19953.7
-22321.5
-25569.1
-30830.9
15647.2
10702.8
8037.54
6468.01
5494.87
4879.1
4494.19
4267.44
4153.9
4123.79
4156.02
4234.65
4346.83
4481.61
4629.26
4780.8
4927.73
5061.87
5175.31
5260.36
5309.54
5315.63
5271.73
5171.3
5008.28
4777.14
4473.05
4091.93
3630.63
3087.03
2460.2
1750.48
959.622
90.8576
-851.072
-1859.95
-2928.23
-4047.24
-5207.68
-6400.25
-7616.69
-8851.36
-10103.7
-11382.3
-12711.9
-14146.5
-15796.2
-17886
-20904.4
-26027.2
13382.4
8633.99
6214.55
4862.94
4057.96
3561.96
3256.23
3076.19
2983.8
2954.82
2972.62
3024.96
3102.15
3196.09
3299.64
3406.28
3509.85
3604.49
3684.51
3744.41
3778.84
3782.65
3750.91
3678.97
3562.5
3397.58
3180.75
2909.12
2580.43
2193.19
1746.7
1241.22
677.957
59.1907
-611.751
-1330.51
-2091.8
-2889.6
-3717.51
-4569.23
-5439.43
-6325.02
-7227.22
-8155.21
-9132.69
-10211
-11497
-13218.5
-15889
-20764.3
10203.4
5959.82
4036.85
3054.44
2502.41
2173.73
1974.72
1858.13
1797.56
1776.87
1785.3
1815.07
1860.15
1915.54
1976.87
2040.19
2101.77
2158.06
2205.66
2241.25
2261.62
2263.68
2244.49
2201.24
2131.36
2032.48
1902.54
1739.81
1542.94
1311.03
1043.66
740.975
403.699
33.1782
-368.613
-799.094
-1255.14
-1733.22
-2229.57
-2740.6
-3263.37
-3796.45
-4341.41
-4905.39
-5506.19
-6183.14
-7022.9
-8226.56
-10299.7
-14619.1
5076.76
2358.73
1445.72
1051.98
848.334
731.594
662.087
621.594
600.469
592.987
595.401
605.042
619.856
638.152
658.461
679.452
699.882
718.565
734.36
746.164
752.906
753.557
747.132
732.703
709.407
676.461
633.176
578.975
513.411
436.18
347.147
246.355
134.046
10.6645
-123.134
-266.496
-418.389
-577.645
-743.035
-913.383
-1087.76
-1265.77
-1448.11
-1637.49
-1840.72
-2073.36
-2372.76
-2840.14
-3803.11
-6546.4
2359.94
1684.37
1238.22
973.482
813.264
714.003
652.623
616.347
597.597
591.537
594.847
605.075
620.288
638.863
659.373
680.511
701.049
719.811
735.663
747.502
754.261
754.912
748.47
734.006
710.656
677.639
634.264
579.957
514.267
436.896
347.708
246.751
134.269
10.7158
-123.247
-266.75
-418.743
-578.027
-743.329
-913.4
-1087.18
-1264.06
-1444.3
-1629.72
-1825.04
-2040.41
-2296.54
-2635.04
-3131.24
-3832.11
5962.6
4605.7
3543.1
2847.94
2405.09
2123.57
1947.36
1842.85
1789.17
1772.65
1783.71
1815.21
1861.47
1917.69
1979.62
2043.37
2105.28
2161.81
2209.57
2245.27
2265.69
2267.76
2248.51
2205.15
2135.11
2036.02
1905.81
1742.76
1545.51
1313.18
1045.35
742.163
404.368
33.3277
-368.957
-799.867
-1256.22
-1734.39
-2230.5
-2740.73
-3261.76
-3791.55
-4330.45
-4883.1
-5461.78
-6092.17
-6823.23
-7740.03
-8953.04
-10386
8637.09
6972.07
5555.29
4568.6
3912.85
3484.98
3213.49
3052.09
2970.52
2948.16
2970.19
3025.33
3104.44
3199.73
3304.26
3411.62
3515.72
3610.75
3691.05
3751.12
3785.64
3789.45
3757.62
3685.5
3568.77
3403.49
3186.21
2914.04
2584.73
2196.78
1749.52
1243.2
679.069
59.4303
-612.343
-1331.83
-2093.65
-2891.64
-3719.19
-4569.66
-5437.15
-6317.58
-7210.34
-8120.95
-9065.33
-10076.5
-11214.1
-12571.3
-14239.6
-16031.7
10705.1
8896.86
7286.05
6117.43
5315.88
4781.7
4439.2
4236.13
4136.6
4115.19
4153.05
4235.43
4350.2
4486.82
4635.81
4788.34
4936
5070.68
5184.51
5269.8
5319.1
5325.19
5281.16
5180.48
5017.08
4785.45
4480.72
4098.85
3636.67
3092.08
2464.15
1753.26
961.173
91.1746
-851.938
-1861.87
-2930.92
-4050.27
-5210.31
-6401.3
-7614.25
-8842.27
-10082.5
-11339.2
-12628
-13982.5
-15461.7
-17151.4
-19115.9
-21102.9
12380.7
10502.2
8785.72
7508.39
6613.57
6008.75
5619.11
5390.52
5284.23
5271.77
5331.35
5445.5
5599.48
5780.33
5976.19
6175.94
6368.91
6544.77
6693.44
6805.07
6870.06
6879.15
6823.43
6694.48
6484.47
6186.28
5793.64
5301.33
4705.26
4002.72
3192.54
2275.22
1253.09
130.457
-1086.39
-2389.19
-3767.79
-5210.52
-6704.54
-8236.62
-9794.16
-11366.7
-12947.9
-14538.8
-16152
-17817.6
-19588.7
-21539.9
-23713.8
-25823.4
13793.3
11879.1
10105.3
8765.66
7815.38
7168.48
6752.63
6513.75
6411.87
6416.69
6504.38
6655.29
6852.52
7080.91
7326.45
7575.81
7816.17
8035.01
8220.07
8359.36
8441.16
8454.11
8387.33
8230.48
7973.96
7609.02
7127.99
6524.41
5793.31
4931.36
3937.12
2811.26
1556.71
178.839
-1314.5
-2912.95
-4603.8
-6372.3
-8202.12
-10076.2
-11977.8
-13892.1
-15808.5
-17723.5
-19644.8
-21596.8
-23625.3
-25794.2
-28130.8
-30329.4
15022.2
13090
11286.3
9913.46
8934.03
8266.83
7841.98
7606.17
7519.04
7549.22
7671.39
7864.2
8108.89
8388.36
8686.57
8988.15
9278.15
9541.93
9765.1
9933.51
10033.3
10051.1
9974.02
9789.74
9486.88
9055.07
8485.18
7769.55
6902.27
5879.41
4699.28
3362.72
1873.3
237.483
-1535.21
-3432.23
-5438.15
-7534.96
-9702.59
-11919.8
-14165.3
-16419.5
-18666.5
-20897.6
-23114.6
-25335.5
-27598.6
-29958.7
-32432.4
-34703.3
16117.7
14177.1
12359.7
10972.4
9982.02
9310.68
8890.5
8668.98
8605.7
8668.62
8831.3
9070.98
9367.28
9701.35
10055.3
10411.7
10753.6
11064.4
11327.4
11526.5
11645.6
11669.3
11582.7
11371.5
11022.6
10523.9
9864.81
9036.47
8032.02
6846.91
5479.21
3929.96
2203.37
307.102
-1747.61
-3945.95
-6269.6
-8697.12
-11204.5
-13766
-16355.5
-18948.1
-21522.3
-24063.5
-26567.4
-29045.2
-31528.2
-34063.4
-36659.9
-38994.3
17112.7
15169.4
13348.3
11958.7
10970
10306.4
9901.5
9703.4
9671.67
9773.79
9982.39
10273.5
10625.3
11017.3
11429.8
11843.5
12239.6
12599.3
12903.9
13135.1
13274.9
13305.6
13210.3
12972.9
12578.3
12012.9
11264.5
10323
9180.69
7832.32
6275.77
4512.25
2546.68
387.936
-1950.96
-4452.81
-7096.34
-9856.51
-12705.2
-15611.9
-18545.4
-21475.2
-24374
-27220.9
-30005.3
-32731.8
-35425.1
-38125.8
-40836.7
-43229.7
18028.8
16086.5
14268.1
12884.3
11906.1
11259.1
10877.5
10710.1
10716.2
10862.9
11122.1
11468.6
11879.3
12332.1
12805.8
13279.1
13731.3
14141.7
14489.4
14754.2
14915.8
14954.6
14851.6
14588.6
14149
13517.1
12679.6
11625
10344.6
8832.5
7086.42
5107.76
2902.15
479.739
-2144.63
-4951.31
-7915.93
-11009.8
-14200.4
-17452.5
-20729.6
-23995.2
-27216.2
-30365.3
-33425.4
-36394.9
-39292.1
-42151.9
-44972.1
-47420.7
18880.8
16941.7
15130.2
13757.8
12796.3
12172.1
11819.9
11688.7
11737.6
11933.3
12246.8
12652
13124.3
13640.4
14177.3
14712
15222
15684.5
16076.7
16376.2
16560.8
16608.6
16498.8
16211.2
15727.2
15029.7
14103.6
12936.3
11518.2
9842.66
7907.23
5713.52
3267.9
581.785
-2328.1
-5439.59
-8725.2
-12152.4
-15684.5
-19281.1
-22900.2
-26499.7
-30040.1
-33487.8
-36819.6
-40027.3
-43123.7
-46138.2
-49064.2
-51566.6
19678
17743.7
15941.9
14584.6
13644.1
13047.2
12728.8
12637.8
12733.3
12981.2
13351.8
13818
14354.1
14935.2
15536.7
16134.2
16703.1
17218.7
17656.3
17991.5
18199.9
18257.7
18141.9
17830.6
17303.3
16541.1
15527.6
14248.8
12694.1
10856.4
8732.87
6325.45
3641.22
692.891
-2500.92
-5915.53
-9520.28
-13278.8
-17150
-21088.4
-25046.7
-28976.7
-32832.8
-36575.2
-40174.2
-43615.9
-46907.2
-50072.7
-53101.8
-55656.5
20426.3
18497.6
16707.4
15367.7
14451.1
13884.4
13602.7
13554.8
13699.2
14001.5
14431.1
14959.8
15560.8
16207.9
16875
17535.8
18164.1
18733.4
19216.9
19588.3
19821.2
19889.7
19768.9
19435
18865.5
18040.1
16940.8
15552.4
13863.2
11865.7
9556.72
6938.44
4018.68
811.447
-2662.74
-6376.67
-10296.5
-14382.2
-18587.9
-22863.5
-27155.9
-31411.4
-35578
-39609.8
-43470.9
-47141.6
-50623.4
-53936.2
-57065.7
-59671.3
21128.5
19206.2
17428.6
16108
15217
14682.3
14439.2
14435.8
14630.6
14988.3
15477.6
16069.4
16735.7
17448.9
18181.4
18905.5
19593.1
20216
20745.5
21153.2
21410.8
21490.6
21365.7
21010.3
20400.2
19513.5
18330.7
16835.4
15015
12861.3
10371
7546.43
4396.16
935.472
-2813.23
-6820.25
-11048.6
-15454.5
-19987.7
-24593.2
-29212.4
-33785.8
-38255.7
-42569.8
-46686.4
-50580.1
-54247.2
-57703.2
-60930.2
-63585.2
21785.7
19869.9
18105.6
16804.8
15940.1
15438.4
15234.4
15276.1
15521.5
15934.7
16483.5
17137.9
17868.7
18647.2
19444.3
20230.8
20976.8
21652.5
22227.3
22671
22953.4
23044.9
22916.5
22540.9
21892.1
20946.5
19683.3
18084.8
16137.6
13832.8
11166.9
8142.57
4768.97
1062.67
-2952.13
-7243.26
-11770.7
-16486.9
-21337.6
-26262.7
-31198.5
-36079.8
-40843.1
-45430.3
-49793.9
-53902.9
-57749
-61343.1
-64664.2
-67366.8
22397
20487.9
18736.8
17456
16617.8
16148.8
15983.6
16070
16365.2
16832.8
17439.8
18155.3
18949.1
19791.1
20651
21498
22300.8
23027.8
23646.7
24125.6
24432.3
24535.5
24404.5
24010
23324.6
22323.1
20983.2
19286.3
17218
14768.8
11935
8719.42
5132.01
1190.49
-3079.17
-7642.48
-12456.5
-17470
-22624.7
-27855.9
-33094.9
-38271.1
-43315.2
-48163.6
-52763.3
-57078.3
-61095.3
-64821.4
-68232.2
-70980.4
22960.5
21058
19320
18058.6
17246.2
16809.1
16681.6
16811.1
17154.4
17674.4
18337.4
19111.5
19965.5
20868.3
21788.2
22693.1
23550.1
24326.1
24987.3
25499.8
25830.1
25944.8
25811.8
25400
24680.5
23626.5
22214.7
20425.1
18242.7
15657.3
12665.1
9269.11
5479.85
1316.22
-3194.15
-8014.56
-13099.2
-18393.7
-23835.6
-29356
-34881.3
-40335.8
-45645.1
-50740.2
-55562.8
-60072
-64250.2
-68100.7
-71596.3
-74387.3
23473.6
21577.3
19851.8
18609
17821.1
17414.2
17322.5
17492.8
17881.5
18450.8
19166.4
19995.7
20906.3
21866.1
22842.3
23801.4
24709.4
25531.4
26232.2
26776.5
27129
27255
27120.4
26692.9
25942
24839.7
23361.3
21486.1
19197.8
16486.2
13347.1
9783.61
5806.96
1437.07
-3296.87
-8356.09
-13692.2
-19247.6
-24956.4
-30745.5
-36536.8
-42249.9
-47805.5
-53129.6
-58159.1
-62848.7
-67176.6
-71142.6
-74716.7
-77547.5
23933.1
22042.6
20328.6
19102.9
18337.7
17958.9
17900.2
18108.1
18538.6
19153.4
19917.5
20797.4
21760
22772.2
23800
24808.9
25763.5
26627.7
27365
27938.6
28311.7
28448.1
28312.5
27871
27091.9
25945.8
24407.1
22454
20069.8
17243.4
13970.7
10254.9
6107.82
1550.26
-3387.15
-8663.74
-14228.8
-20021.8
-25973.5
-32007.1
-38040.6
-43989.1
-49768.9
-55301.4
-60519.3
-65373
-69837.1
-73908.2
-77553.8
-80420.8
24335.4
22450.1
20746.5
19536.3
18791.5
18437.8
18408.8
18650.4
19118.4
19773.9
20581.3
21506.5
22515.5
23574.4
24648.4
25701.7
26698
27600
28369.9
28969.7
29361.3
29507.2
29370.9
28917.2
28113.2
26928.6
25336.6
23314.7
20845.4
17917.4
14526.2
10675.4
6377.12
1653.09
-3464.83
-8934.29
-14702.4
-20706.3
-26873.6
-33124.3
-39372.7
-45530.2
-51508.9
-57226.4
-62611.4
-67610.7
-72195.6
-76360
-80069.1
-82968.1
24677
22796.2
21101.6
19904.9
19177.8
18845.9
18842.5
19113.4
19613.7
20304.4
21149.2
22113.4
23162.6
24261.8
25375.6
26467.3
27499.5
28434.1
29232.2
29854.6
30262.3
30416.6
30279.8
29815.8
28990.7
27773.1
26135.5
24054.6
21512.4
18497.3
15004.6
11037.9
6609.94
1743.06
-3529.78
-9164.79
-15107.3
-21292.1
-27644.5
-34081.6
-40514.5
-46851.4
-53000.9
-58877.2
-64405.7
-69530.1
-74218.7
-78463.1
-82226.6
-85153.2
24954.7
23077.7
21390.6
20204.9
19492.4
19178.5
19196.2
19491.2
20018.3
20737.9
21613.6
22610
23692.1
24824.6
25971
27094.3
28156.2
29117.6
29938.9
30580
31000.9
31162.1