/*--------------------------------*- C++ -*----------------------------------*\
| =========                 |                                                 |
| \\      /  F ield         | OpenFOAM: The Open Source CFD Toolbox           |
|  \\    /   O peration     | Version:  5.x                                   |
|   \\  /    A nd           | Web:      www.OpenFOAM.org                      |
|    \\/     M anipulation  |                                                 |
\*---------------------------------------------------------------------------*/
FoamFile
{
    version     2.0;
    format      ascii;
    class       volScalarField;
    location    "0.5";
    object      T;
}
// * * * * * * * * * * * * * * * * * * * * * * * * * * * * * * * * * * * * * //

dimensions      [0 0 0 1 0 0 0];

internalField   nonuniform List<scalar> 
25000
(
300.715
301.316
301.658
301.894
302.079
302.234
302.371
302.499
302.62
302.739
302.857
302.977
303.099
303.225
303.355
303.488
303.626
303.768
303.914
304.062
304.212
304.363
304.514
304.662
304.807
304.946
305.077
305.199
305.309
305.404
305.483
305.543
305.582
305.597
305.586
305.548
305.48
305.38
305.249
305.083
304.883
304.648
304.377
304.069
303.722
303.332
302.893
302.383
301.756
300.862
301.316
302.765
303.7
304.38
304.922
305.381
305.791
306.171
306.534
306.89
307.245
307.604
307.971
308.348
308.737
309.139
309.553
309.98
310.417
310.862
311.313
311.767
312.219
312.664
313.099
313.517
313.912
314.278
314.608
314.895
315.132
315.313
315.429
315.474
315.442
315.327
315.122
314.825
314.429
313.933
313.333
312.627
311.814
310.891
309.852
308.688
307.379
305.879
304.088
301.759
301.656
303.697
305.11
306.182
307.055
307.806
308.48
309.108
309.71
310.302
310.892
311.491
312.102
312.732
313.381
314.051
314.743
315.455
316.185
316.929
317.683
318.441
319.196
319.941
320.667
321.366
322.026
322.638
323.19
323.67
324.067
324.369
324.564
324.64
324.588
324.396
324.055
323.559
322.9
322.072
321.072
319.896
318.542
317.005
315.28
313.352
311.195
308.753
305.908
302.398
301.89
304.369
306.171
307.584
308.758
309.782
310.71
311.58
312.417
313.241
314.066
314.904
315.76
316.642
317.553
318.494
319.465
320.465
321.49
322.535
323.594
324.659
325.72
326.768
327.789
328.771
329.7
330.56
331.336
332.012
332.571
332.996
333.272
333.38
333.308
333.04
332.564
331.869
330.945
329.786
328.385
326.739
324.844
322.698
320.292
317.613
314.633
311.294
307.478
302.932
302.069
304.895
307.021
308.731
310.179
311.457
312.627
313.731
314.798
315.852
316.911
317.986
319.088
320.224
321.398
322.611
323.864
325.154
326.478
327.827
329.195
330.57
331.941
333.295
334.614
335.884
337.085
338.197
339.202
340.076
340.8
341.351
341.709
341.852
341.761
341.418
340.806
339.912
338.724
337.232
335.43
333.313
330.879
328.125
325.044
321.626
317.844
313.645
308.916
303.417
302.216
305.331
307.734
309.707
311.403
312.92
314.32
315.649
316.942
318.223
319.513
320.826
322.174
323.564
325.003
326.491
328.028
329.612
331.236
332.894
334.574
336.264
337.95
339.613
341.236
342.797
344.274
345.644
346.88
347.957
348.849
349.529
349.972
350.151
350.043
349.626
348.88
347.786
346.333
344.508
342.304
339.716
336.743
333.383
329.633
325.485
320.917
315.882
310.276
303.874
302.342
305.707
308.353
310.561
312.487
314.226
315.845
317.393
318.905
320.41
321.929
323.479
325.073
326.72
328.424
330.189
332.014
333.894
335.824
337.793
339.79
341.799
343.803
345.782
347.712
349.57
351.328
352.958
354.431
355.715
356.779
357.591
358.122
358.34
358.217
357.726
356.845
355.553
353.834
351.675
349.068
346.009
342.497
338.533
334.117
329.246
323.903
318.05
311.592
304.315
302.453
306.039
308.904
311.327
313.465
315.414
317.242
319.001
320.728
322.453
324.2
325.986
327.826
329.729
331.702
333.745
335.859
338.039
340.277
342.562
344.88
347.212
349.539
351.837
354.08
356.238
358.282
360.177
361.89
363.385
364.625
365.573
366.194
366.453
366.317
365.755
364.741
363.25
361.265
358.772
355.762
352.231
348.18
343.613
338.534
332.944
326.836
320.175
312.88
304.747
302.553
306.34
309.404
312.026
314.361
316.509
318.538
320.501
322.438
324.38
326.351
328.373
330.458
332.618
334.859
337.183
339.589
342.071
344.62
347.223
349.864
352.523
355.177
357.798
360.357
362.821
365.154
367.319
369.276
370.985
372.404
373.491
374.206
374.509
374.361
373.729
372.583
370.894
368.644
365.817
362.403
358.401
353.812
348.643
342.903
336.6
329.731
322.272
314.15
305.172
302.645
306.616
309.865
312.672
315.193
317.53
319.752
321.913
324.054
326.209
328.403
330.657
332.987
335.404
337.913
340.518
343.216
346.001
348.863
351.786
354.754
357.742
360.725
363.672
366.55
369.322
371.948
374.385
376.59
378.516
380.117
381.346
382.157
382.506
382.349
381.649
380.371
378.487
375.972
372.812
368.996
364.523
359.398
353.63
347.233
340.22
332.596
324.346
315.406
305.592
302.731
306.872
310.293
313.274
315.972
318.488
320.895
323.248
325.589
327.952
330.366
332.85
335.422
338.094
340.871
343.756
346.746
349.834
353.009
356.253
359.547
362.866
366.179
369.453
372.652
375.733
378.653
381.365
383.819
385.965
387.75
389.123
390.032
390.428
390.265
389.499
388.092
386.013
383.237
379.746
375.53
370.59
364.932
358.569
351.519
343.802
335.431
326.397
316.647
306.008
302.811
307.112
310.694
313.838
316.703
319.392
321.977
324.515
327.05
329.617
332.245
334.956
337.768
340.691
343.733
346.896
350.176
353.566
357.051
360.615
364.235
367.882
371.525
375.126
378.645
382.035
385.25
388.236
390.94
393.305
395.275
396.793
397.802
398.248
398.079
397.249
395.716
393.446
390.411
386.593
381.983
376.581
370.395
363.444
355.749
347.337
338.227
328.421
317.872
306.418
302.885
307.337
311.07
314.369
317.393
320.246
323.002
325.718
328.441
331.206
334.043
336.976
340.022
343.193
346.496
349.932
353.498
357.185
360.978
364.858
368.799
372.772
376.741
380.666
384.501
388.199
391.705
394.963
397.915
400.5
402.654
404.317
405.426
405.922
405.75
404.859
403.204
400.746
397.458
393.319
388.321
382.464
375.76
368.231
359.903
350.808
340.972
330.406
319.073
306.82
302.955
307.547
311.424
314.868
318.042
321.051
323.97
326.858
329.761
332.718
335.758
338.906
342.179
345.591
349.149
352.852
356.698
360.676
364.77
368.959
373.216
377.508
381.797
386.039
390.186
394.185
397.978
401.505
404.701
407.501
409.837
411.643
412.852
413.399
413.226
412.276
410.502
407.863
404.328
399.877
394.501
388.201
380.992
372.898
363.952
354.191
343.648
332.342
320.245
307.212
303.021
307.744
311.754
315.336
318.652
321.807
324.881
327.932
331.008
334.148
337.383
340.737
344.231
347.875
351.678
355.641
359.757
364.016
368.402
372.891
377.454
382.056
386.656
391.206
395.656
399.948
404.021
407.808
411.242
414.253
416.767
418.713
420.019
420.618
420.444
419.44
417.552
414.738
410.966
406.213
400.472
393.744
386.047
377.408
367.865
357.459
346.234
334.212
321.376
307.591
303.082
307.928
312.062
315.772
319.22
322.514
325.733
328.937
332.177
335.49
338.91
342.462
346.164
350.031
354.069
358.278
362.653
367.183
371.848
376.624
381.481
386.379
391.277
396.124
400.864
405.438
409.778
413.817
417.48
420.693
423.378
425.46
426.861
427.51
427.337
426.281
424.286
421.306
417.307
412.267
406.177
399.04
390.877
381.717
371.603
360.583
348.704
335.999
322.457
307.953
303.138
308.097
312.346
316.174
319.744
323.167
326.521
329.869
333.261
336.737
340.33
344.067
347.966
352.042
356.301
360.743
365.362
370.146
375.075
380.123
385.257
390.437
395.616
400.743
405.758
410.598
415.193
419.469
423.349
426.754
429.603
431.813
433.305
434.002
433.832
432.727
430.631
427.496
423.284
417.974
411.555
404.034
395.43
385.78
375.128
363.528
351.033
337.684
323.477
308.294
303.189
308.251
312.605
316.54
320.222
323.763
327.241
330.721
334.253
337.879
341.632
345.54
349.622
353.891
358.354
363.013
367.858
372.879
378.053
383.353
388.744
394.185
399.626
405.014
410.285
415.372
420.204
424.701
428.784
432.368
435.368
437.699
439.276
440.019
439.851
438.703
436.515
433.235
428.827
423.265
416.542
408.664
399.654
389.548
378.397
366.259
353.193
339.247
324.422
308.611
303.235
308.388
312.836
316.868
320.651
324.297
327.887
331.486
335.145
338.906
342.805
346.867
351.114
355.559
360.209
365.063
370.115
375.35
380.747
386.276
391.902
397.581
403.261
408.886
414.39
419.704
424.751
429.45
433.717
437.465
440.604
443.045
444.7
445.485
445.321
444.134
441.861
438.451
433.864
428.076
421.076
412.874
403.493
392.974
381.369
368.742
355.157
340.667
325.282
308.898
303.275
308.509
313.039
317.155
321.027
324.766
328.454
332.158
335.929
339.81
343.836
348.035
352.429
357.029
361.843
366.872
372.106
377.532
383.126
388.859
394.693
400.583
406.475
412.31
418.022
423.536
428.775
433.654
438.085
441.979
445.241
447.78
449.505
450.328
450.167
448.946
446.6
443.074
438.329
432.339
425.095
416.606
406.897
396.011
384.004
370.944
356.899
341.927
326.044
309.154
303.309
308.612
313.211
317.4
321.346
325.164
328.937
332.729
336.596
340.579
344.715
349.032
353.55
358.283
363.239
368.416
373.807
379.397
385.161
391.068
397.081
403.152
409.226
415.242
421.131
426.818
432.222
437.255
441.828
445.846
449.215
451.839
453.624
454.48
454.322
453.072
450.662
447.039
442.158
435.996
428.542
419.806
409.816
398.615
386.264
372.832
358.392
343.007
326.698
309.372
303.336
308.695
313.351
317.598
321.606
325.488
329.329
333.195
337.139
341.206
345.431
349.844
354.464
359.307
364.378
369.678
375.197
380.92
386.823
392.874
399.033
405.252
411.476
417.64
423.676
429.504
435.043
440.203
444.891
449.012
452.469
455.163
456.997
457.88
457.725
456.451
453.99
450.286
445.295
438.991
431.366
422.428
412.208
400.749
388.116
374.379
359.616
343.893
327.234
309.552
303.357
308.758
313.457
317.749
321.804
325.735
329.628
333.549
337.553
341.683
345.977
350.463
355.161
360.087
365.247
370.639
376.257
382.082
388.091
394.252
400.523
406.855
413.193
419.471
425.618
431.554
437.196
442.453
447.231
451.431
454.954
457.701
459.573
460.477
460.324
459.033
456.533
452.767
447.691
441.28
433.523
424.432
414.035
402.38
389.531
375.561
360.551
344.569
327.643
309.689
303.371
308.801
313.529
317.851
321.936
325.901
329.829
333.787
337.831
342.005
346.345
350.879
355.631
360.613
365.832
371.288
376.971
382.866
388.947
395.181
401.528
407.937
414.352
420.707
426.929
432.939
438.651
443.973
448.81
453.064
456.632
459.415
461.314
462.232
462.08
460.777
458.25
454.443
449.31
442.826
434.981
425.786
415.27
403.482
390.487
376.36
361.183
345.026
327.919
309.781
303.378
308.822
313.565
317.902
322.003
325.984
329.93
333.907
337.971
342.166
346.53
351.089
355.867
360.878
366.127
371.615
377.331
383.261
389.378
395.65
402.034
408.482
414.936
421.329
427.59
433.636
439.383
444.739
449.607
453.887
457.478
460.279
462.191
463.116
462.965
461.656
459.116
455.288
450.127
443.605
435.716
426.468
415.892
404.037
390.968
376.763
361.502
345.257
328.059
309.828
303.378
308.822
313.565
317.902
322.003
325.984
329.93
333.907
337.971
342.166
346.53
351.089
355.867
360.878
366.127
371.615
377.331
383.261
389.378
395.65
402.034
408.482
414.936
421.329
427.59
433.636
439.383
444.739
449.607
453.887
457.478
460.279
462.191
463.116
462.965
461.656
459.116
455.288
450.126
443.605
435.716
426.468
415.892
404.037
390.968
376.763
361.502
345.257
328.059
309.828
303.371
308.801
313.529
317.851
321.936
325.901
329.829
333.787
337.831
342.005
346.345
350.879
355.631
360.613
365.832
371.288
376.972
382.866
388.947
395.181
401.528
407.937
414.352
420.707
426.929
432.939
438.651
443.973
448.81
453.064
456.632
459.415
461.314
462.232
462.08
460.777
458.25
454.443
449.31
442.826
434.981
425.786
415.27
403.482
390.486
376.36
361.183
345.026
327.919
309.781
303.357
308.758
313.457
317.749
321.804
325.735
329.628
333.549
337.553
341.683
345.977
350.463
355.161
360.087
365.247
370.64
376.257
382.082
388.091
394.252
400.523
406.855
413.193
419.471
425.618
431.554
437.196
442.453
447.231
451.431
454.954
457.701
459.574
460.477
460.324
459.033
456.533
452.767
447.691
441.28
433.523
424.432
414.035
402.38
389.53
375.561
360.551
344.569
327.643
309.689
303.336
308.695
313.351
317.598
321.606
325.488
329.329
333.195
337.139
341.206
345.432
349.844
354.465
359.307
364.379
369.678
375.197
380.92
386.823
392.874
399.033
405.252
411.476
417.64
423.676
429.504
435.043
440.203
444.891
449.013
452.469
455.163
456.997
457.88
457.725
456.451
453.99
450.286
445.295
438.991
431.365
422.428
412.207
400.749
388.115
374.379
359.616
343.892
327.233
309.552
303.309
308.612
313.211
317.4
321.346
325.164
328.937
332.729
336.596
340.579
344.715
349.032
353.55
358.283
363.239
368.417
373.808
379.397
385.161
391.069
397.081
403.152
409.226
415.242
421.131
426.818
432.222
437.255
441.828
445.846
449.215
451.839
453.624
454.48
454.322
453.072
450.662
447.038
442.158
435.995
428.542
419.806
409.816
398.615
386.264
372.832
358.392
343.007
326.698
309.372
303.275
308.509
313.039
317.155
321.027
324.766
328.454
332.158
335.929
339.81
343.836
348.036
352.429
357.029
361.843
366.872
372.106
377.532
383.126
388.859
394.693
400.583
406.475
412.31
418.022
423.536
428.775
433.654
438.085
441.979
445.241
447.781
449.506
450.328
450.167
448.946
446.6
443.074
438.329
432.339
425.095
416.605
406.896
396.01
384.004
370.943
356.899
341.927
326.044
309.154
303.235
308.388
312.836
316.868
320.651
324.297
327.887
331.486
335.145
338.906
342.805
346.867
351.114
355.559
360.209
365.063
370.115
375.35
380.747
386.277
391.902
397.581
403.261
408.886
414.39
419.704
424.751
429.45
433.718
437.465
440.604
443.045
444.701
445.486
445.321
444.134
441.861
438.451
433.864
428.075
421.076
412.874
403.493
392.973
381.369
368.742
355.157
340.667
325.282
308.898
303.189
308.251
312.605
316.54
320.222
323.763
327.241
330.721
334.253
337.879
341.632
345.54
349.622
353.891
358.355
363.013
367.859
372.879
378.053
383.353
388.744
394.185
399.627
405.014
410.285
415.373
420.204
424.702
428.784
432.368
435.369
437.699
439.276
440.019
439.851
438.703
436.515
433.235
428.826
423.265
416.542
408.664
399.653
389.548
378.397
366.259
353.193
339.246
324.422
308.611
303.138
308.097
312.346
316.174
319.744
323.167
326.521
329.869
333.261
336.737
340.33
344.067
347.966
352.042
356.301
360.743
365.363
370.146
375.076
380.123
385.257
390.437
395.616
400.743
405.759
410.598
415.193
419.469
423.35
426.755
429.603
431.813
433.305
434.002
433.832
432.727
430.631
427.496
423.284
417.973
411.554
404.033
395.43
385.78
375.127
363.527
351.033
337.684
323.477
308.294
303.082
307.928
312.062
315.772
319.219
322.514
325.733
328.937
332.177
335.49
338.91
342.462
346.164
350.031
354.069
358.278
362.653
367.183
371.848
376.624
381.481
386.38
391.277
396.124
400.865
405.438
409.779
413.817
417.48
420.693
423.379
425.46
426.861
427.51
427.338
426.281
424.286
421.306
417.307
412.267
406.176
399.04
390.877
381.717
371.603
360.583
348.704
335.999
322.457
307.953
303.021
307.744
311.754
315.336
318.652
321.807
324.881
327.932
331.008
334.148
337.383
340.737
344.231
347.876
351.679
355.641
359.757
364.017
368.402
372.892
377.455
382.056
386.656
391.207
395.657
399.948
404.021
407.808
411.243
414.253
416.767
418.713
420.019
420.618
420.444
419.44
417.552
414.738
410.966
406.213
400.471
393.744
386.047
377.408
367.864
357.459
346.233
334.212
321.376
307.591
302.955
307.547
311.424
314.868
318.042
321.051
323.97
326.858
329.761
332.718
335.758
338.906
342.179
345.591
349.149
352.852
356.698
360.676
364.77
368.959
373.216
377.508
381.797
386.039
390.186
394.185
397.978
401.505
404.701
407.501
409.838
411.643
412.852
413.399
413.226
412.276
410.502
407.863
404.328
399.877
394.5
388.201
380.992
372.898
363.952
354.19
343.648
332.342
320.244
307.212
302.885
307.337
311.07
314.369
317.393
320.246
323.002
325.718
328.441
331.206
334.043
336.976
340.022
343.193
346.496
349.932
353.498
357.185
360.978
364.858
368.799
372.772
376.741
380.666
384.501
388.199
391.705
394.964
397.916
400.5
402.654
404.317
405.426
405.922
405.75
404.859
403.203
400.746
397.458
393.319
388.321
382.464
375.76
368.23
359.902
350.807
340.972
330.406
319.073
306.82
302.811
307.112
310.694
313.838
316.703
319.392
321.977
324.515
327.05
329.617
332.245
334.956
337.768
340.691
343.733
346.896
350.176
353.566
357.052
360.616
364.235
367.882
371.525
375.126
378.645
382.036
385.25
388.236
390.94
393.305
395.276
396.793
397.802
398.248
398.079
397.249
395.716
393.446
390.411
386.593
381.983
376.58
370.395
363.443
355.749
347.337
338.227
328.42
317.871
306.418
302.731
306.872
310.293
313.274
315.971
318.488
320.895
323.248
325.589
327.952
330.366
332.85
335.422
338.094
340.871
343.756
346.746
349.834
353.009
356.253
359.547
362.866
366.179
369.453
372.652
375.733
378.653
381.365
383.819
385.965
387.75
389.123
390.032
390.428
390.265
389.499
388.092
386.013
383.237
379.745
375.53
370.59
364.931
358.568
351.519
343.802
335.431
326.397
316.647
306.008
302.645
306.616
309.865
312.672
315.193
317.53
319.752
321.913
324.054
326.209
328.403
330.657
332.987
335.404
337.913
340.518
343.216
346.001
348.863
351.787
354.754
357.742
360.725
363.672
366.55
369.322
371.948
374.385
376.59
378.516
380.117
381.346
382.157
382.506
382.349
381.649
380.371
378.487
375.972
372.812
368.996
364.523
359.398
353.63
347.233
340.22
332.596
324.346
315.406
305.592
302.553
306.34
309.404
312.026
314.361
316.509
318.538
320.501
322.438
324.38
326.351
328.373
330.458
332.618
334.859
337.183
339.589
342.071
344.62
347.223
349.864
352.524
355.177
357.798
360.357
362.821
365.154
367.319
369.276
370.985
372.404
373.492
374.206
374.509
374.361
373.729
372.582
370.894
368.644
365.817
362.403
358.4
353.811
348.643
342.903
336.6
329.731
322.272
314.15
305.172
302.453
306.039
308.904
311.327
313.465
315.414
317.242
319.001
320.728
322.453
324.2
325.986
327.826
329.729
331.702
333.745
335.859
338.039
340.277
342.562
344.88
347.212
349.539
351.837
354.08
356.238
358.282
360.178
361.89
363.385
364.625
365.573
366.194
366.453
366.317
365.755
364.741
363.25
361.265
358.772
355.762
352.231
348.18
343.613
338.534
332.944
326.835
320.175
312.88
304.747
302.342
305.706
308.353
310.561
312.487
314.226
315.845
317.393
318.905
320.41
321.929
323.479
325.073
326.72
328.424
330.189
332.014
333.894
335.824
337.793
339.79
341.8
343.804
345.782
347.712
349.57
351.328
352.958
354.431
355.715
356.779
357.591
358.122
358.34
358.217
357.726
356.845
355.553
353.834
351.675
349.068
346.009
342.497
338.533
334.117
329.246
323.903
318.05
311.592
304.315
302.216
305.331
307.734
309.707
311.403
312.92
314.32
315.649
316.942
318.223
319.513
320.826
322.174
323.564
325.003
326.491
328.028
329.612
331.237
332.894
334.574
336.264
337.95
339.613
341.236
342.797
344.275
345.644
346.88
347.957
348.849
349.53
349.972
350.151
350.043
349.626
348.879
347.786
346.333
344.508
342.304
339.716
336.743
333.383
329.633
325.485
320.917
315.882
310.276
303.874
302.069
304.895
307.021
308.731
310.179
311.457
312.627
313.731
314.798
315.852
316.911
317.986
319.088
320.224
321.398
322.611
323.864
325.154
326.478
327.827
329.195
330.57
331.941
333.295
334.615
335.884
337.085
338.197
339.202
340.076
340.8
341.351
341.709
341.852
341.761
341.418
340.806
339.912
338.724
337.232
335.43
333.313
330.879
328.125
325.044
321.626
317.844
313.644
308.915
303.417
301.89
304.369
306.171
307.584
308.758
309.782
310.71
311.58
312.417
313.241
314.066
314.904
315.76
316.642
317.553
318.494
319.465
320.465
321.49
322.535
323.594
324.659
325.72
326.768
327.789
328.771
329.7
330.56
331.337
332.012
332.571
332.997
333.272
333.38
333.308
333.04
332.564
331.869
330.945
329.786
328.385
326.739
324.844
322.697
320.291
317.613
314.633
311.294
307.478
302.932
301.656
303.697
305.11
306.182
307.055
307.806
308.48
309.108
309.71
310.302
310.892
311.491
312.102
312.732
313.381
314.051
314.743
315.455
316.185
316.929
317.683
318.441
319.196
319.941
320.667
321.366
322.027
322.638
323.19
323.67
324.067
324.369
324.564
324.64
324.588
324.396
324.055
323.559
322.9
322.072
321.072
319.896
318.542
317.005
315.28
313.352
311.195
308.753
305.908
302.398
301.316
302.765
303.7
304.38
304.922
305.381
305.791
306.171
306.534
306.89
307.245
307.604
307.971
308.348
308.737
309.139
309.553
309.98
310.417
310.862
311.313
311.767
312.219
312.664
313.099
313.517
313.912
314.278
314.608
314.895
315.132
315.313
315.429
315.474
315.442
315.327
315.122
314.825
314.429
313.933
313.333
312.627
311.814
310.891
309.852
308.688
307.379
305.879
304.088
301.759
300.715
301.316
301.658
301.894
302.079
302.234
302.371
302.499
302.62
302.739
302.857
302.977
303.099
303.225
303.355
303.488
303.626
303.768
303.914
304.062
304.212
304.363
304.514
304.662
304.807
304.946
305.077
305.199
305.309
305.404
305.483
305.543
305.582
305.597
305.586
305.548
305.48
305.38
305.249
305.083
304.883
304.648
304.377
304.069
303.722
303.332
302.893
302.383
301.756
300.862
300.276
300.668
300.949
301.164
301.339
301.489
301.624
301.75
301.871
301.989
302.107
302.227
302.349
302.475
302.605
302.739
302.877
303.019
303.165
303.314
303.464
303.615
303.766
303.915
304.06
304.199
304.331
304.453
304.563
304.658
304.737
304.797
304.836
304.851
304.84
304.802
304.734
304.634
304.503
304.337
304.137
303.902
303.632
303.324
302.98
302.594
302.164
301.676
301.109
300.423
300.668
301.717
302.51
303.134
303.65
304.096
304.499
304.875
305.236
305.591
305.945
306.304
306.671
307.049
307.438
307.841
308.256
308.683
309.12
309.567
310.019
310.473
310.926
311.372
311.808
312.226
312.622
312.989
313.319
313.607
313.845
314.025
314.141
314.187
314.155
314.039
313.835
313.537
313.141
312.645
312.045
311.34
310.528
309.608
308.575
307.423
306.138
304.694
303.042
301.112
300.948
302.507
303.736
304.729
305.564
306.294
306.958
307.58
308.179
308.768
309.358
309.956
310.568
311.198
311.848
312.52
313.213
313.926
314.657
315.402
316.157
316.917
317.673
318.42
319.147
319.847
320.509
321.122
321.674
322.156
322.553
322.855
323.05
323.127
323.074
322.882
322.541
322.045
321.385
320.557
319.557
318.382
317.03
315.498
313.782
311.872
309.751
307.386
304.722
301.69
301.159
303.123
304.718
306.037
307.165
308.164
309.078
309.939
310.772
311.594
312.418
313.255
314.112
314.995
315.907
316.85
317.822
318.824
319.851
320.898
321.959
323.025
324.089
325.138
326.161
327.145
328.075
328.937
329.715
330.392
330.951
331.377
331.653
331.762
331.689
331.421
330.944
330.249
329.324
328.164
326.764
325.119
323.227
321.086
318.691
316.035
313.098
309.85
306.238
302.204
301.329
303.623
305.53
307.138
308.533
309.783
310.937
312.031
313.093
314.144
315.202
316.277
317.38
318.517
319.692
320.907
322.162
323.455
324.78
326.132
327.502
328.88
330.254
331.61
332.932
334.203
335.406
336.521
337.527
338.403
339.128
339.68
340.038
340.181
340.09
339.747
339.134
338.239
337.05
335.558
333.756
331.64
329.209
326.461
323.393
320
316.266
312.165
307.65
302.679
301.471
304.046
306.223
308.088
309.729
311.214
312.597
313.915
315.202
316.48
317.769
319.082
320.431
321.823
323.263
324.754
326.293
327.88
329.507
331.168
332.851
334.544
336.233
337.899
339.525
341.089
342.569
343.94
345.178
346.258
347.151
347.832
348.275
348.455
348.347
347.929
347.182
346.088
344.633
342.807
340.602
338.016
335.046
331.692
327.956
323.834
319.317
314.384
309
303.132
301.595
304.414
306.831
308.929
310.796
312.502
314.103
315.639
317.145
318.647
320.165
321.715
323.311
324.959
326.666
328.434
330.261
332.145
334.078
336.051
338.051
340.064
342.072
344.054
345.988
347.849
349.61
351.243
352.718
354.004
355.069
355.883
356.414
356.633
356.509
356.018
355.136
353.843
352.122
349.962
347.355
344.296
340.787
336.829
332.428
327.584
322.294
316.544
310.31
303.571
301.704
304.743
307.375
309.687
311.764
313.679
315.488
317.236
318.956
320.678
322.423
324.21
326.052
327.957
329.932
331.979
334.097
336.281
338.523
340.812
343.133
345.47
347.801
350.103
352.35
354.512
356.559
358.458
360.174
361.671
362.913
363.863
364.485
364.744
364.607
364.045
363.029
361.537
359.55
357.055
354.044
350.513
346.465
341.904
336.839
331.277
325.221
318.666
311.596
304.002
301.804
305.041
307.872
310.38
312.655
314.768
316.778
318.729
320.659
322.598
324.569
326.591
328.678
330.841
333.085
335.413
337.822
340.309
342.862
345.47
348.116
350.78
353.438
356.064
358.627
361.095
363.433
365.601
367.562
369.274
370.695
371.784
372.5
372.803
372.655
372.022
370.874
369.184
366.931
364.102
360.686
356.683
352.096
346.934
341.208
334.932
328.115
320.762
312.865
304.427
301.896
305.316
308.33
311.023
313.484
315.786
317.988
320.137
322.272
324.423
326.617
328.872
331.204
333.624
336.137
338.746
341.449
344.239
347.105
350.034
353.007
356.001
358.989
361.941
364.824
367.601
370.231
372.673
374.881
376.811
378.414
379.645
380.457
380.806
380.649
379.948
378.669
376.782
374.265
371.102
367.284
362.81
357.686
351.923
345.54
338.553
330.982
322.836
314.121
304.847
301.981
305.572
308.757
311.624
314.26
316.742
319.129
321.47
323.805
326.165
328.578
331.064
333.639
336.314
339.095
341.985
344.98
348.073
351.254
354.504
357.804
361.128
364.448
367.728
370.932
374.019
376.944
379.66
382.118
384.268
386.056
387.43
388.341
388.738
388.574
387.806
386.398
384.316
381.537
378.042
373.824
368.882
363.225
356.866
349.829
342.139
333.818
324.889
315.363
305.263
302.06
305.811
309.158
312.188
314.992
317.645
320.21
322.737
325.266
327.83
330.458
333.171
335.985
338.913
341.959
345.127
348.413
351.808
355.3
358.871
362.497
366.151
369.8
373.408
376.932
380.329
383.549
386.54
389.248
391.618
393.591
395.111
396.121
396.567
396.398
395.567
394.032
391.759
388.72
384.899
380.285
374.88
368.694
361.747
354.064
345.677
336.618
326.914
316.589
305.674
302.135
306.036
309.534
312.719
315.681
318.499
321.235
323.94
326.657
329.42
332.257
335.192
338.241
341.416
344.724
348.166
351.739
355.432
359.232
363.119
367.067
371.047
375.023
378.955
382.797
386.501
390.013
393.277
396.234
398.823
400.981
402.645
403.756
404.253
404.081
403.188
401.53
399.069
395.777
391.634
386.632
380.772
374.067
366.54
358.223
349.152
339.367
328.903
317.792
306.076
302.205
306.246
309.887
313.218
316.331
319.305
322.204
325.08
327.978
330.933
333.973
337.124
340.401
343.818
347.381
351.09
354.943
358.928
363.029
367.226
371.49
375.79
380.087
384.336
388.491
392.497
396.296
399.829
403.03
405.835
408.175
409.983
411.193
411.742
411.568
410.616
408.84
406.197
402.658
398.202
392.821
386.517
379.306
371.215
362.278
352.54
342.046
330.841
318.965
306.469
302.271
306.444
310.219
313.686
316.94
320.062
323.116
326.156
329.226
332.364
335.6
338.958
342.455
346.105
349.914
353.883
358.006
362.274
366.667
371.165
375.736
380.346
384.954
389.513
393.97
398.269
402.349
406.143
409.583
412.598
415.116
417.065
418.373
418.972
418.798
417.791
415.901
413.083
409.306
404.548
398.801
392.069
384.369
375.731
366.197
355.814
344.635
332.714
320.098
306.848
302.332
306.627
310.527
314.122
317.509
320.769
323.969
327.163
330.397
333.709
337.13
340.685
344.392
348.264
352.308
356.525
360.907
365.445
370.119
374.904
379.769
384.677
389.583
394.438
399.187
403.768
408.116
412.161
415.831
419.049
421.738
423.823
425.226
425.875
425.702
424.644
422.645
419.661
415.657
410.611
404.515
397.373
389.206
380.047
369.941
358.942
347.11
334.504
321.181
307.211
302.388
306.796
310.811
314.524
318.034
321.423
324.758
328.096
331.482
334.957
338.552
342.292
346.197
350.279
354.544
358.994
363.621
368.414
373.352
378.409
383.552
388.741
393.93
399.065
404.09
408.938
413.54
417.824
421.71
425.121
427.973
430.187
431.681
432.379
432.207
431.101
429.002
425.861
421.644
416.327
409.902
402.375
393.767
384.116
373.471
361.891
349.442
336.191
322.202
307.553
302.439
306.951
311.07
314.891
318.513
322.02
325.479
328.949
332.476
336.101
339.857
343.768
347.855
352.13
356.601
361.267
366.122
371.151
376.334
381.644
387.045
392.496
397.947
403.344
408.624
413.721
418.56
423.065
427.154
430.744
433.749
436.083
437.662
438.406
438.237
437.087
434.895
431.61
427.196
421.628
414.898
407.013
397.998
387.891
376.746
364.627
351.606
337.756
323.149
307.87
302.485
307.089
311.302
315.22
318.943
322.555
326.126
329.715
333.37
337.131
341.031
345.098
349.35
353.802
358.459
363.322
368.382
373.627
379.034
384.573
390.209
395.898
401.588
407.223
412.737
418.059
423.115
427.822
432.097
435.85
438.994
441.438
443.096
443.882
443.716
442.527
440.251
436.835
432.242
426.446
419.439
411.23
401.843
391.322
379.723
367.114
353.574
339.18
324.01
308.158
302.525
307.209
311.505
315.508
319.319
323.025
326.694
330.388
334.155
338.035
342.064
346.268
350.667
355.274
360.097
365.133
370.377
375.813
381.417
387.161
393.005
398.905
404.808
410.654
416.375
421.899
427.146
432.033
436.472
440.372
443.639
446.182
447.909
448.733
448.571
447.347
444.997
441.466
436.714
430.717
423.465
414.968
405.253
394.364
382.362
369.319
355.318
340.441
324.774
308.414
302.559
307.312
311.677
315.753
319.639
323.424
327.178
330.961
334.823
338.806
342.945
347.266
351.79
356.531
361.495
366.681
372.082
377.681
383.455
389.374
395.397
401.479
407.564
413.591
419.49
425.187
430.599
435.641
440.221
444.246
447.62
450.248
452.035
452.892
452.733
451.48
449.067
445.437
440.55
434.379
426.917
418.173
408.177
396.973
384.626
371.211
356.814
341.523
325.429
308.633
302.587
307.395
311.818
315.952
319.9
323.749
327.571
331.427
335.367
339.434
343.663
348.08
352.707
357.557
362.636
367.945
373.474
379.207
385.121
391.183
397.353
403.583
409.818
415.993
422.039
427.878
433.426
438.594
443.29
447.418
450.88
453.577
455.414
456.298
456.141
454.865
452.4
448.69
443.692
437.38
429.746
420.8
410.572
399.111
386.481
372.761
358.04
342.41
325.965
308.812
302.608
307.459
311.924
316.103
320.097
323.996
327.87
331.782
335.782
339.912
344.209
348.7
353.405
358.338
363.506
368.908
374.536
380.372
386.392
392.563
398.845
405.189
411.538
417.827
423.985
429.932
435.583
440.849
445.634
449.84
453.369
456.12
457.995
458.9
458.745
457.451
454.947
451.175
446.092
439.672
431.907
422.807
412.403
400.744
387.898
373.945
358.976
343.088
326.375
308.95
302.622
307.501
311.996
316.205
320.231
324.162
328.071
332.021
336.061
340.235
344.577
349.117
353.875
358.865
364.093
369.558
375.252
381.157
387.249
393.494
399.852
406.273
412.699
419.065
425.298
431.319
437.04
442.371
447.217
451.477
455.051
457.838
459.738
460.657
460.504
459.198
456.668
452.854
447.714
441.221