/*--------------------------------*- C++ -*----------------------------------*\
| =========                 |                                                 |
| \\      /  F ield         | OpenFOAM: The Open Source CFD Toolbox           |
|  \\    /   O peration     | Version:  5.x                                   |
|   \\  /    A nd           | Web:      www.OpenFOAM.org                      |
|    \\/     M anipulation  |                                                 |
\*---------------------------------------------------------------------------*/
FoamFile
{
    version     2.0;
    format      ascii;
    class       volScalarField;
    location    "0.3";
    object      gradTy;
}
// * * * * * * * * * * * * * * * * * * * * * * * * * * * * * * * * * * * * * //

dimensions      [0 -1 0 1 0 0 0];

internalField   nonuniform List<scalar> 
25000
(
4856.81
9547.93
12304.8
14169.7
15565.1
16693.9
17668.7
18559.1
19412.1
20261.6
21132.7
22044.7
23012.3
24046.5
25155.1
26342.8
27611.6
28960.9
30387.3
31885
33445.4
35057.9
36709.3
38384.2
40065.4
41733.5
43367.6
44945.1
46441.9
47832.8
49090.9
50188.7
51097.3
51786.8
52226.8
52386.2
52233.8
51738.6
50870.9
49602.6
47908.1
45764.7
43152.8
40054.2
36448.6
32304.8
27560.5
22073.7
15492.4
6852.33
2137.64
5301.04
7550.94
9217.97
10525.2
11611.3
12564.9
13445.9
14296.7
15148.7
16025.9
16946.9
17926
18973.9
20098.3
21303.9
22592.5
23963.5
25413.4
26936.1
28523.3
30163.8
31844.4
33549.6
35261.6
36961
38626.5
40234.9
41762
43181.8
44467.3
45590.1
46520.9
47229.3
47684.2
47853.8
47706.3
47210.4
46335.8
45054.1
43339.7
41170.6
38528.1
35396.6
31761
27600.7
22878
17516.6
11365.4
4173.43
1222.31
3371.18
5120.31
6537.64
7715.87
8733.88
9652.48
10517.9
11365.5
12223.2
13112.8
14051.6
15053.3
16128.2
17283.8
18524.4
19851.9
21265.4
22761.2
24333.3
25972.8
27668.4
29406.4
31170.9
32943.6
34704.5
36431.4
38100.8
39687.3
41164.1
42503.3
43675.4
44650
45395.4
45879.5
46069.2
45931.6
45434.3
44546
43237.9
41484.3
39263.8
36559.9
33361.2
29660.1
25451.2
20726.8
15472.6
9671.16
3337.24
824.936
2377.98
3751.11
4944.36
5991.83
6935.33
7814.16
8662.27
9508.15
10375.5
11283.7
12248.8
13283.6
14397.9
15598.6
16890.2
18274.1
19749.3
21312
22955.7
24671.2
26446.9
28268.3
30119
31979.9
33830.1
35646.6
37404.6
39077.6
40637.5
42054.9
43298.9
44337.3
45136.9
45663.7
45882.9
45759.8
45260.5
44352.3
43005.5
41194.2
38897.7
36101.8
32799.7
28992.2
24688.1
19904
14666.6
9021.04
3055.1
616.164
1810.72
2921.25
3937.45
4871.75
5746.92
6588.61
7421.78
8269.16
9150.79
10083.9
11083.1
12160.3
13324.7
14583.1
15939.5
17395.2
18949
20596.7
22331.6
24143.9
26021.3
27949
29909.5
31882.9
33847.1
35777.8
37648.9
39432.3
41098.4
42615.8
43951.7
45071.8
45940.9
46522.5
46779.7
46675.5
46173.8
45240.3
43843.9
41958
39562.7
36645.8
33204.7
29247.7
24795.2
19881.1
14556
8892.01
2993.54
492.592
1461.71
2391.95
3276.28
4120.85
4939.86
5751.38
6574.53
7427.9
8328.74
9292.46
10332.4
11459.7
12683.3
14009.3
15441.8
16981.8
18627.7
20375.2
22217
24142.9
26140.1
28192.6
30282.3
32387.9
34486.2
36551.5
38555.8
40469.6
42260.9
43896.5
45341.1
46558.1
47509.6
48156.4
48458.9
48377.5
47873.4
46910.2
45455
43480.4
40966.6
37903
34290.6
30143.8
25492
20381
14875.3
9060.08
3043.66
414.307
1236.55
2043.23
2832.51
3609.9
4386.42
5176.33
5995.39
6859.53
7784.03
8782.93
9868.69
11051.9
12340.9
13741.9
15258.4
16891.5
18639.3
20497.1
22457.2
24508.9
26638.5
28829.4
31062.2
33314.6
35561.8
37776.5
39929.1
41987.8
43918.7
45686.1
47252.1
48577.5
49621.3
50341.5
50695.2
50639.9
50133.9
49138.1
47617.5
45543.6
42896.1
39665.6
35855.9
31486.2
26592.6
21229.8
15471.4
9410.66
3158.78
362.835
1087.2
1809.2
2531.46
3260.74
4007.31
4783.89
5604.47
6483.47
7434.94
8472.04
9606.59
10848.8
12206.7
13686.4
15291.3
17022.2
18877
20850.7
22935.2
25119.3
27388.4
29725.1
32108.9
34516.2
36920.7
39293.4
41603
43815.4
45894.5
47801.9
49497.3
50938.3
52080.9
52879.9
53289.1
53262.5
52755.5
51726
50136.8
47957.3
45166.8
41756.5
37732.2
33117
27952.3
22299.5
16239.5
9871.96
3312.44
328.284
986.514
1650.5
2326.27
3022.25
3749.08
4519.07
5345.52
6242.06
7222.09
8298.28
9482.08
10783.4
12210.4
13768.7
15461.9
17290.5
19252.4
21342.2
23551.4
25868.1
28277.3
30760.5
33296.2
35859.4
38422.6
40954.9
43423.2
45791.2
48020.6
50070.4
51897.5
53456.5
54700.4
55580.5
56047.4
56051.7
55545.2
54483
52825.1
50539.3
47603.6
44009.5
39764.4
34894.1
29444.6
23482.8
17096
10390
3485.75
304.709
917.677
1541.71
2185.41
2858.78
3573.22
4341.2
5175.9
6090.7
7098.72
8212.38
9443
10800.4
12292.6
13925.5
15702.2
17623.5
19687
21887
24214.7
26657.9
29200.6
31823.7
34504.5
37217.2
39932.5
42618.3
45239.2
47757.4
50132.1
52319.9
54275
55949.3
57292.5
58252.7
58777.3
58813.4
58309.6
57217.9
55495.7
53108.7
50033.7
46262
41801.9
36681.9
30951.4
24682.2
17967.2
10918.5
3662.85
288.192
869.397
1465.3
2086.4
2744.05
3450.46
4218.54
5061.61
5993.06
7025.98
8172.73
9444.62
10851.5
12401.3
14100
15950.8
17954.3
20108.1
22406.3
24839.8
27395.9
30058.3
32807
35618.5
38465.9
41318.7
44143.4
46903.2
49558.2
52065.6
54380
56453.1
58234
59669.8
60705.5
61285.4
61353.4
60855.1
59739.6
57961.6
55484.9
52284.9
48352.6
43696.9
38348.2
32358.9
25805
18784.5
11414.9
3829.36
275.967
833.59
1408.42
2012.36
2657.81
3357.72
4125.44
4974.56
5918.59
6970.68
8143.23
9447.58
10893.6
12489.4
14240.7
16151.1
18221
20448
22826.1
25345.9
27994.5
30755.1
33607.3
36526.9
39486.1
42453.6
45394.5
48270.8
51041.2
53661.3
56083.6
58257.9
60131.1
61647.7
62750.4
63380.5
63479.4
62990
61858.6
60037.9
57489.5
54187.8
50123.1
45304.9
39764.6
33557.5
26762.6
19482.4
11839.4
3971.78
265.973
804.192
1361.32
1950.2
2584.04
3276.31
4040.76
4891.19
5841.24
6904.12
8092.28
9417.09
10888.5
12514.5
14301.1
16251.8
18367
20644.3
23077.8
25657.9
28371.6
31201.8
34127.8
37124.9
40165
43215.9
46242.1
49204.6
52061.2
54766.1
57270.5
59522.7
61467.8
63048.7
64205.9
64878.7
65006.4
64529.6
63392.8
61546.5
58950.9
55579.4
51421.6
46487.2
40808.6
34442.7
27471.2
19999.5
12154.1
4077.45
256.63
776.518
1316.35
1889.57
2509.84
3191
3946.98
4791.71
5738.86
6801.65
7992.51
9322.77
10802.3
12439.3
14239.6
16206.8
18341.4
20640.9
23099.5
25707.8
28452.6
31316.8
34279.8
37316.6
40399
43494.6
46567.5
49578.3
52484.1
55238.8
57792.7
60093.1
62084.4
63708.2
64903.7
65609.1
65762.2
65302.3
64172.2
62321.6
59709.4
56308.1
52106.9
47115.4
41366.6
34918
27853.1
20279.1
12324.6
4134.74
246.709
746.917
1267.53
1822.26
2424.92
3089.44
3829.78
4659.78
5593.04
6642.63
7820.83
9138.87
10606.5
12231.8
14020.7
15976.6
18100.3
20389.2
22837.7
25436.6
28172.7
31029.5
33986.2
37018.4
40097.8
43192.4
46266.5
49280.7
52192.4
54955.3
57519.9
59833.4
61839.9
63480.8
64695.1
65420.6
65594.5
65155.8
64046.8
62216.4
59623.4
56239.6
52053.9
47075.8
41338
34898.3
27840.1
20271.1
12320.3
4133.42
235.269
712.582
1210.24
1741.88
2321.19
2961.92
3677.8
4482.41
5389.05
6410.47
7558.68
8844.61
10277.8
11866.2
13615.6
15529.3
17608.2
19849.9
22248.9
24796.4
27479.6
30282.3
33184.5
36162.2
39187.9
42230.2
45254.2
48221.4
51089.9
53814.1
56345.5
58632
60618.5
62247.1
63457.7
64188.6
64377.8
63964.7
62892.2
61109.6
58575.8
55262.7
51159.2
46274.2
40639.7
34312.8
27375.6
19934.3
12116.2
4065.04
221.616
671.442
1141.06
1643.71
2192.66
2801.21
3482.61
4249.92
5115.92
6092.87
7192.29
8424.68
9799.24
11323.5
13003.2
14841.5
16839.2
18994.3
21301.6
23752.5
26335
29033.6
31829.1
34698.6
37615.7
40550.4
43468.9
46334.4
49106.4
51741.1
54191.5
56407.3
58335.4
59919.5
61101.6
61821.6
62019.6
61636.5
60617
58911.6
56480.2
53295.4
49346.1
44640.8
39210.3
33109.5
26417.8
19238.1
11693.6
3923.33
205.281
622.095
1057.68
1524.57
2035.33
2602.52
3238.63
3955.98
4766.59
5681.99
6713.02
7869.56
9160.26
10592.3
12170.9
13899.3
15778.3
17806
19977.5
22284.9
24717.2
27259.6
29894.2
32599.7
35351.1
38120.3
40875.7
43582.4
46202.3
48694.2
51013.6
53113
54942.2
56448
57575.2
58267
58466.5
58117.7
57167.9
55570
53286
50289.5
46569.8
42134.7
37013.3
31257.3
24941.9
18164.4
11041.4
3704.58
186.002
563.77
958.839
1382.76
1847.1
2363.4
2943.15
3597.64
4337.92
5174.55
6117.48
7175.78
8357.39
9668.88
11115.1
12699.2
14421.7
16281
18272.8
20389.9
22622
24956.1
27375.5
29860.8
32389.3
34935
37469
39959.5
42371.3
44666.6
46804.5
48741.3
50430.6
51823.6
52869.2
53515
53708.5
53397.8
52534.2
51074.3
48982.5
46234.6
42820.3
38746.7
34040.5
28749.3
22942.2
16708.9
10157
3407.91
163.715
496.284
844.275
1217.98
1627.7
2083.7
2596.21
3175.27
3830.69
4571.86
5407.63
6346.05
7394.2
8557.92
9841.6
11247.9
12777.5
14429.1
16198.6
18080
20064.1
22139.3
24291
26501.8
28751.8
31017.8
33274.3
35492.7
37642.1
39688.6
41596
43325.1
44834.8
46081.2
47019
47601.3
47781.1
47512.1
46750.6
45457.7
43601.7
41160.5
38125.1
34501.6
30313.6
25603.5
20433
14882.2
9046.82
3035.47
138.538
420.002
714.637
1031.23
1378.57
1765.43
2200.52
2692.4
3249.44
3879.66
4590.57
5389.07
6281.19
7271.92
8365.02
9562.78
10865.8
12273
13781.1
15384.7
17076.2
18845.8
20680.9
22567.1
24487
26421.2
28347.7
30242.4
32078.8
33828.1
35459.1
36938.6
38231.3
39299.8
40105.2
40607.5
40766.3
40541.9
39897
38798.2
37218.1
35137.8
32549.5
29458.3
25884.3
21863.8
17449.4
12709.5
7726.27
2592.42
110.75
335.782
571.412
824.711
1102.75
1412.58
1761.21
2155.52
2602.24
3107.81
3678.28
4319.19
5035.39
5830.92
6708.79
7670.87
8717.69
9848.32
11060.2
12349.1
13708.8
15131.5
16607.2
18124.1
19668.6
21224.8
22775.3
24300.5
25779.2
27188.2
28502.5
29695.2
30738
31600.7
32251.9
32659.4
32790.5
32613.4
32097.7
31216.5
29947.7
28276.1
26195.2
23709
20833.7
17598.5
14045.8
10230.8
6219.55
2086.88
80.7742
244.91
416.811
601.657
804.627
1030.89
1285.56
1573.7
1900.23
2269.86
2687.02
3155.77
3679.68
4261.68
4904.01
5608.04
6374.17
7201.72
8088.84
9032.42
10028
11069.8
12150.6
13261.7
14393.2
15533.4
16669.7
17787.6
18871.7
19904.9
20868.9
21744.1
22509.6
23143.3
23622.2
23922.6
24020.5
23892.6
23516.5
22872.5
21944.2
20720.6
19196.7
17375.6
15269
12898.4
10294.9
7498.81
4558.78
1529.65
49.1489
149.026
253.641
366.155
489.728
627.511
782.633
958.172
1157.13
1382.38
1636.64
1922.37
2241.75
2596.58
2988.22
3417.52
3884.71
4389.4
4930.45
5505.99
6113.29
6748.84
7408.22
8086.18
8776.6
9472.47
10166
10848.4
11510.2
12141.1
12729.9
13264.5
13732.2
14119.6
14412.6
14596.6
14657.1
14579.8
14351
13958.6
13392.7
12646.4
11716.7
10605.5
9320.01
7873.21
6284.14
4577.46
2782.82
933.751
16.4985
50.0265
85.1471
122.923
164.417
210.687
262.786
321.748
388.581
464.254
549.675
645.676
752.987
872.215
1003.82
1148.07
1305.08
1474.68
1656.51
1849.94
2054.05
2267.67
2489.3
2717.19
2949.27
3183.2
3416.35
3645.79
3868.31
4080.45
4278.44
4458.24
4615.57
4745.9
4844.49
4906.47
4926.93
4901.03
4824.22
4692.41
4502.25
4251.44
3938.98
3565.48
3133.34
2646.98
2112.76
1538.99
935.624
313.942
-16.4995
-50.0293
-85.1518
-122.929
-164.424
-210.695
-262.793
-321.753
-388.585
-464.255
-549.673
-645.671
-752.979
-872.205
-1003.8
-1148.06
-1305.06
-1474.67
-1656.51
-1849.94
-2054.06
-2267.68
-2489.33
-2717.23
-2949.33
-3183.28
-3416.45
-3645.91
-3868.46
-4080.63
-4278.64
-4458.48
-4615.85
-4746.22
-4844.85
-4906.88
-4927.37
-4901.52
-4824.74
-4692.94
-4502.8
-4251.98
-3939.49
-3565.94
-3133.74
-2647.29
-2112.98
-1539.12
-935.684
-313.958
-49.15
-149.029
-253.646
-366.161
-489.736
-627.52
-782.64
-958.179
-1157.13
-1382.39
-1636.64
-1922.37
-2241.74
-2596.57
-2988.21
-3417.51
-3884.7
-4389.39
-4930.45
-5505.99
-6113.3
-6748.85
-7408.25
-8086.22
-8776.65
-9472.55
-10166.1
-10848.5
-11510.4
-12141.3
-12730.1
-13264.7
-13732.5
-14119.9
-14412.9
-14597
-14657.6
-14580.3
-14351.5
-13959.1
-13393.2
-12646.9
-11717.2
-10606
-9320.4
-7873.51
-6284.35
-4577.59
-2782.88
-933.767
-80.7754
-244.914
-416.817
-601.665
-804.636
-1030.9
-1285.57
-1573.71
-1900.24
-2269.86
-2687.02
-3155.77
-3679.67
-4261.68
-4904
-5608.03
-6374.16
-7201.71
-8088.84
-9032.42
-10028
-11069.8
-12150.6
-13261.8
-14393.2
-15533.5
-16669.8
-17787.7
-18871.8
-19905.1
-20869.1
-21744.4
-22509.9
-23143.6
-23622.6
-23923
-24021
-23893
-23517
-22872.9
-21944.7
-20721.1
-19197.2
-17376
-15269.4
-12898.7
-10295.1
-7498.93
-4558.84
-1529.66
-110.751
-335.786
-571.418
-824.72
-1102.76
-1412.59
-1761.22
-2155.53
-2602.25
-3107.82
-3678.29
-4319.19
-5035.4
-5830.92
-6708.79
-7670.87
-8717.69
-9848.32
-11060.2
-12349.1
-13708.8
-15131.5
-16607.2
-18124.2
-19668.6
-21224.9
-22775.4
-24300.7
-25779.4
-27188.4
-28502.7
-29695.4
-30738.2
-31601
-32252.2
-32659.7
-32790.9
-32613.8
-32098.1
-31217
-29948.2
-28276.6
-26195.6
-23709.4
-20834
-17598.7
-14046
-10230.9
-6219.6
-2086.9
-138.539
-420.007
-714.644
-1031.24
-1378.58
-1765.45
-2200.53
-2692.42
-3249.46
-3879.67
-4590.59
-5389.08
-6281.2
-7271.93
-8365.02
-9562.79
-10865.9
-12273
-13781.1
-15384.7
-17076.2
-18845.8
-20681
-22567.1
-24487
-26421.2
-28347.8
-30242.5
-32078.9
-33828.2
-35459.2
-36938.8
-38231.5
-39300.1
-40105.5
-40607.8
-40766.6
-40542.3
-39897.4
-38798.6
-37218.5
-35138.2
-32549.9
-29458.7
-25884.6
-21864
-17449.6
-12709.6
-7726.32
-2592.43
-163.717
-496.289
-844.283
-1217.99
-1627.71
-2083.72
-2596.23
-3175.29
-3830.7
-4571.88
-5407.65
-6346.07
-7394.21
-8557.94
-9841.61
-11247.9
-12777.5
-14429.1
-16198.7
-18080
-20064.1
-22139.3
-24291
-26501.9
-28751.8
-31017.9
-33274.3
-35492.8
-37642.2
-39688.8
-41596.1
-43325.3
-44834.9
-46081.4
-47019.2
-47601.6
-47781.4
-47512.4
-46750.9
-45458
-43602
-41160.9
-38125.5
-34501.9
-30313.8
-25603.7
-20433.2
-14882.3
-9046.87
-3035.48
-186.004
-563.776
-958.849
-1382.78
-1847.12
-2363.42
-2943.17
-3597.66
-4337.94
-5174.57
-6117.51
-7175.8
-8357.41
-9668.9
-11115.2
-12699.2
-14421.7
-16281
-18272.8
-20389.9
-22622.1
-24956.1
-27375.5
-29860.9
-32389.3
-34935
-37469.1
-39959.6
-42371.4
-44666.7
-46804.6
-48741.4
-50430.8
-51823.7
-52869.3
-53515.2
-53708.7
-53398.1
-52534.5
-51074.6
-48982.8
-46234.8
-42820.6
-38747
-34040.7
-28749.4
-22942.3
-16709
-10157.1
-3407.93
-205.283
-622.101
-1057.69
-1524.58
-2035.35
-2602.55
-3238.66
-3956
-4766.61
-5682.02
-6713.05
-7869.59
-9160.29
-10592.3
-12170.9
-13899.3
-15778.3
-17806
-19977.5
-22285
-24717.2
-27259.6
-29894.3
-32599.7
-35351.2
-38120.4
-40875.8
-43582.5
-46202.4
-48694.3
-51013.7
-53113.1
-54942.3
-56448.1
-57575.3
-58267.2
-58466.7
-58117.9
-57168.1
-55570.2
-53286.2
-50289.7
-46570
-42134.9
-37013.4
-31257.4
-24942.1
-18164.5
-11041.4
-3704.59
-221.619
-671.448
-1141.07
-1643.72
-2192.68
-2801.24
-3482.63
-4249.95
-5115.95
-6092.9
-7192.32
-8424.72
-9799.28
-11323.6
-13003.2
-14841.5
-16839.3
-18994.4
-21301.6
-23752.5
-26335
-29033.7
-31829.1
-34698.7
-37615.8
-40550.4
-43469
-46334.5
-49106.5
-51741.2
-54191.6
-56407.4
-58335.4
-59919.6
-61101.7
-61821.7
-62019.7
-61636.6
-60617.1
-58911.7
-56480.3
-53295.6
-49346.3
-44640.9
-39210.4
-33109.6
-26417.9
-19238.2
-11693.6
-3923.34
-235.272
-712.589
-1210.25
-1741.89
-2321.21
-2961.95
-3677.83
-4482.45
-5389.08
-6410.51
-7558.72
-8844.66
-10277.9
-11866.3
-13615.6
-15529.4
-17608.2
-19849.9
-22249
-24796.4
-27479.7
-30282.4
-33184.6
-36162.3
-39188
-42230.3
-45254.3
-48221.5
-51089.9
-53814.2
-56345.6
-58632
-60618.5
-62247.1
-63457.7
-64188.6
-64377.8
-63964.7
-62892.2
-61109.7
-58575.9
-55262.8
-51159.2
-46274.2
-40639.8
-34312.9
-27375.7
-19934.4
-12116.3
-4065.05
-246.711
-746.924
-1267.54
-1822.27
-2424.94
-3089.47
-3829.81
-4659.82
-5593.08
-6642.67
-7820.88
-9138.91
-10606.6
-12231.9
-14020.8
-15976.7
-18100.3
-20389.3
-22837.8
-25436.6
-28172.8
-31029.6
-33986.3
-37018.5
-40097.9
-43192.5
-46266.5
-49280.8
-52192.5
-54955.4
-57520
-59833.5
-61840
-63480.8
-64695.2
-65420.6
-65594.5
-65155.8
-64046.8
-62216.4
-59623.4
-56239.6
-52053.9
-47075.8
-41338
-34898.3
-27840.1
-20271.1
-12320.4
-4133.43
-256.632
-776.525
-1316.36
-1889.59
-2509.87
-3191.03
-3947.01
-4791.74
-5738.9
-6801.7
-7992.56
-9322.82
-10802.4
-12439.4
-14239.7
-16206.8
-18341.4
-20641
-23099.6
-25707.9
-28452.6
-31316.9
-34279.8
-37316.7
-40399.1
-43494.6
-46567.5
-49578.3
-52484.2
-55238.8
-57792.7
-60093.2
-62084.4
-63708.2
-64903.7
-65609.1
-65762.2
-65302.2
-64172.2
-62321.5
-59709.4
-56308
-52106.8
-47115.4
-41366.5
-34918
-27853.1
-20279.1
-12324.6
-4134.75
-265.976
-804.199
-1361.33
-1950.22
-2584.06
-3276.34
-4040.79
-4891.23
-5841.28
-6904.16
-8092.33
-9417.14
-10888.5
-12514.6
-14301.2
-16251.8
-18367.1
-20644.4
-23077.8
-25658
-28371.6
-31201.8
-34127.8
-37125
-40165
-43215.9
-46242.1
-49204.7
-52061.2
-54766.1
-57270.5
-59522.7
-61467.8
-63048.7
-64205.8
-64878.7
-65006.3
-64529.5
-63392.6
-61546.3
-58950.8
-55579.3
-51421.5
-46487.1
-40808.5
-34442.6
-27471.1
-19999.5
-12154.1
-4077.45
-275.969
-833.597
-1408.43
-2012.37
-2657.83
-3357.74
-4125.47
-4974.6
-5918.63
-6970.72
-8143.27
-9447.63
-10893.7
-12489.4
-14240.8
-16151.2
-18221.1
-20448
-22826.1
-25346
-27994.6
-30755.2
-33607.4
-36527
-39486.2
-42453.6
-45394.5
-48270.8
-51041.2
-53661.3
-56083.6
-58257.9
-60131
-61647.6
-62750.3
-63380.4
-63479.3
-62989.9
-61858.5
-60037.7
-57489.4
-54187.7
-50122.9
-45304.7
-39764.5
-33557.4
-26762.6
-19482.4
-11839.4
-3971.78
-288.194
-869.402
-1465.31
-2086.41
-2744.07
-3450.48
-4218.57
-5061.64
-5993.1
-7026.02
-8172.77
-9444.66
-10851.5
-12401.4
-14100
-15950.8
-17954.4
-20108.1
-22406.3
-24839.9
-27396
-30058.3
-32807
-35618.5
-38465.9
-41318.8
-44143.4
-46903.2
-49558.2
-52065.6
-54380
-56453
-58234
-59669.7
-60705.4
-61285.2
-61353.2
-60854.9
-59739.4
-57961.4
-55484.7
-52284.7
-48352.4
-43696.8
-38348
-32358.8
-25804.9
-18784.4
-11414.9
-3829.36
-304.71
-917.681
-1541.72
-2185.42
-2858.8
-3573.23
-4341.22
-5175.93
-6090.73
-7098.74
-8212.41
-9443.04
-10800.5
-12292.7
-13925.5
-15702.3
-17623.6
-19687
-21887.1
-24214.8
-26657.9
-29200.6
-31823.7
-34504.6
-37217.2
-39932.5
-42618.3
-45239.2
-47757.4
-50132
-52319.8
-54274.9
-55949.2
-57292.3
-58252.6
-58777.1
-58813.2
-58309.4
-57217.7
-55495.5
-53108.5
-50033.5
-46261.7
-41801.7
-36681.7
-30951.2
-24682.1
-17967.2
-10918.4
-3662.84
-328.285
-986.515
-1650.5
-2326.27
-3022.26
-3749.09
-4519.08
-5345.53
-6242.07
-7222.11
-8298.3
-9482.11
-10783.5
-12210.4
-13768.8
-15461.9
-17290.6
-19252.5
-21342.2
-23551.4
-25868.2
-28277.3
-30760.6
-33296.2
-35859.4
-38422.6
-40954.9
-43423.1
-45791.2
-48020.5
-50070.3
-51897.4
-53456.4
-54700.3
-55580.4
-56047.2
-56051.5
-55545
-54482.7
-52824.9
-50539
-47603.4
-44009.3
-39764.2
-34893.9
-29444.5
-23482.7
-17095.9
-10390
-3485.74
-362.835
-1087.2
-1809.2
-2531.46
-3260.73
-4007.31
-4783.88
-5604.47
-6483.47
-7434.95
-8472.04
-9606.6
-10848.8
-12206.7
-13686.4
-15291.3
-17022.2
-18877
-20850.7
-22935.2
-25119.3
-27388.4
-29725.1
-32108.9
-34516.1
-36920.6
-39293.4
-41602.9
-43815.3
-45894.4
-47801.8
-49497.2
-50938.2
-52080.8
-52879.7
-53288.9
-53262.3
-52755.3
-51725.8
-50136.5
-47957
-45166.5
-41756.2
-37732
-33116.8
-27952.2
-22299.4
-16239.4
-9871.93
-3312.43
-414.305
-1236.55
-2043.22
-2832.49
-3609.89
-4386.4
-5176.32
-5995.37
-6859.51
-7784.01
-8782.92
-9868.68
-11051.8
-12340.9
-13741.8
-15258.4
-16891.5
-18639.3
-20497.1
-22457.2
-24508.9
-26638.5
-28829.4
-31062.2
-33314.5
-35561.7
-37776.4
-39929
-41987.7
-43918.6
-45685.9
-47252
-48577.3
-49621.1
-50341.2
-50695
-50639.6
-50133.6
-49137.8
-47617.3
-45543.3
-42895.8
-39665.3
-35855.6
-31486
-26592.4
-21229.6
-15471.3
-9410.61
-3158.76
-492.589
-1461.7
-2391.93
-3276.26
-4120.82
-4939.83
-5751.35
-6574.49
-7427.87
-8328.71
-9292.42
-10332.4
-11459.7
-12683.2
-14009.3
-15441.7
-16981.7
-18627.7
-20375.2
-22216.9
-24142.9
-26140
-28192.6
-30282.2
-32387.8
-34486.1
-36551.3
-38555.7
-40469.4
-42260.8
-43896.3
-45340.9
-46557.9
-47509.4
-48156.2
-48458.6
-48377.2
-47873.1
-46909.9
-45454.7
-43480.1
-40966.3
-37902.7
-34290.4
-30143.6
-25491.8
-20380.8
-14875.2
-9060.03
-3043.64
-616.159
-1810.7
-2921.23
-3937.42
-4871.71
-5746.87
-6588.56
-7421.73
-8269.1
-9150.73
-10083.9
-11083.1
-12160.2
-13324.7
-14583
-15939.4
-17395.2
-18948.9
-20596.7
-22331.5
-24143.8
-26021.2
-27948.9
-29909.4
-31882.8
-33846.9
-35777.6
-37648.7
-39432.1
-41098.2
-42615.6
-43951.4
-45071.6
-45940.7
-46522.3
-46779.5
-46675.3
-46173.5
-45240
-43843.6
-41957.7
-39562.4
-36645.5
-33204.4
-29247.5
-24795
-19881
-14555.9
-8891.96
-2993.52
-824.932
-2377.97
-3751.08
-4944.32
-5991.78
-6935.27
-7814.09
-8662.2
-9508.08
-10375.4
-11283.6
-12248.7
-13283.5
-14397.8
-15598.5
-16890.1
-18274
-19749.2
-21311.9
-22955.6
-24671.1
-26446.7
-28268.2
-30118.8
-31979.8
-33830
-35646.5
-37404.4
-39077.4
-40637.3
-42054.7
-43298.6
-44337
-45136.7
-45663.4
-45882.6
-45759.5
-45260.2
-44352
-43005.2
-41193.9
-38897.4
-36101.6
-32799.4
-28992
-24687.9
-19903.8
-14666.4
-9020.98
-3055.08
-1222.31
-3371.17
-5120.29
-6537.61
-7715.82
-8733.82
-9652.41
-10517.8
-11365.5
-12223.1
-13112.7
-14051.5
-15053.2
-16128.2
-17283.7
-18524.3
-19851.8
-21265.3
-22761.1
-24333.2
-25972.7
-27668.3
-29406.3
-31170.7
-32943.5
-34704.3
-36431.3
-38100.6
-39687.1
-41163.9
-42503.1
-43675.2
-44649.7
-45395.2
-45879.3
-46069
-45931.4
-45434
-44545.7
-43237.6
-41484
-39263.5
-36559.7
-33360.9
-29659.9
-25451
-20726.6
-15472.5
-9671.09
-3337.22
-2137.64
-5301.03
-7550.92
-9217.94
-10525.1
-11611.2
-12564.8
-13445.8
-14296.6
-15148.6
-16025.8
-16946.8
-17925.9
-18973.9
-20098.3
-21303.8
-22592.4
-23963.4
-25413.2
-26936
-28523.1
-30163.7
-31844.3
-33549.4
-35261.5
-36960.9
-38626.3
-40234.8
-41761.8
-43181.6
-44467.1
-45589.9
-46520.7
-47229.1
-47683.9
-47853.5
-47706
-47210.1
-46335.5
-45053.8
-43339.4
-41170.3
-38527.8
-35396.4
-31760.8
-27600.5
-22877.8
-17516.5
-11365.4
-4173.41
-4856.8
-9547.92
-12304.8
-14169.6
-15565
-16693.9
-17668.6
-18559
-19412
-20261.5
-21132.6
-22044.6
-23012.2
-24046.5
-25155
-26342.7
-27611.5
-28960.8
-30387.2
-31884.8
-33445.3
-35057.8
-36709.1
-38384.1
-40065.2
-41733.4
-43367.5
-44944.9
-46441.8
-47832.6
-49090.8
-50188.5
-51097.1
-51786.6
-52226.6
-52386
-52233.5
-51738.4
-50870.7
-49602.3
-47907.8
-45764.4
-43152.5
-40053.9
-36448.4
-32304.6
-27560.3
-22073.6
-15492.4
-6852.31
2138.96
5304.07
7554.27
9220.16
10524.8
11606.9
12555.1
13429.1
14271.2
15112.8
15977.7
16884.5
17847.2
18876.6
19980.2
21162.7
22426
23769.2
25189.1
26679.7
28232.6
29837
31479.8
33145.7
34817.3
36475.6
38099.7
39666.9
41153.5
42534.2
43782.5
44870.9
45770.8
46452.7
46886.3
47040.9
46885.6
46390
45524.6
44262
42577.3
40448.6
37857.9
34789.2
31227.1
27149.9
22518.8
17255.6
11207.4
4120.64
1462.24
3943.78
5883.73
7404.5
8637.39
9682.63
10612.1
11477.8
12318.1
13162.5
14033.7
14949.4
15923.6
16966.7
18086.1
19286.4
20569.4
21934.2
23377.4
24893
26472.4
28104.7
29776.5
31472.4
33174.8
34864.1
36519.2
38117.2
39633.8
41043.3
42318.6
43431.9
44353.8
45054.4
45502.6
45667.2
45516.8
45020.3
44147.9
42871.9
41167.3
39012.7
36391.1
33288.9
29694.7
25595.5
20970.1
15780.2
9965.97
3483.85
1013.75
2874.21
4455.61
5778.4
6902.27
7887.74
8785.92
9637.79
10475.9
11326.4
12210.1
13143.7
14140.5
15210.5
16360.9
17596.1
18917.8
20324.9
21813.9
23378.5
25009.9
26696.9
28425.8
30180.6
31943.3
33693.6
35409.9
37068.3
38643.8
40109.8
41438.4
42600.4
43565.7
44302.9
44780
44964.4
44823.6
44325.5
43439.3
42136.8
40392.8
38186.9
35503.4
32332.7
28670
24514.8
19868.8
14735.6
9130.06
3113.84
745.325
2168.12
3451.11
4585.71
5595.48
6514.43
7376.81
8213.43
9050.84
9911.49
10814.1
11774.1
12803.9
13913.1
15108.6
16394.5
17772.3
19240.8
20796.3
22432.1
24139.1
25905.7
27717.4
29557.9
31408.2
33247.3
35052.4
36798.7
38460.1
40008.4
41414.6
42647.8
43676.3
44467
44986.3
45199.7
45073.1
44572.6
43666.4
42325.1
40523.4
38241.3
35465.4
32190.1
28418.2
24161.1
19440.3
14289.6
8764.23
2959.71
579.925
1709.87
2770.2
3749.99
4658.62
5515.72
6344.49
7168.1
8008.07
8883.59
9811.35
10805.5
11877.6
13036.9
14289.7
15640.1
17089.3
18636
20276
22002.4
23805.7
25673.5
27590.9
29540.4
31502.3
33454.6
35373.1
37231.7
39002.6
40656.2
42161.5
43485.8
44595.2
45454.6
46028
46278.9
46170.6
45667.5
44735.7
43344.6
41468.4
39087.4
36190.3
32775.2
28851.6
24441.4
19580.6
14322
8740.6
2940.3
473.768
1407.83
2308.69
3169.94
3996.97
4802.76
5604.2
6419.45
7266.36
8161.59
9120.13
10155
11277.2
12495.3
13815.6
15241.7
16774.8
18413.1
20152.3
21985.1
23901.3
25888
27929.5
30007.4
32100.7
34186.1
36238.1
38229
40129.1
41907
43529.4
44961.4
46166.6
47107.5
47745.4
48040.8
47954.7
47448.8
46487.1
45037.2
43072.3
40572.9
37529.1
33942.5
29828
25215.6
20152
14702.1
8951.35
3006.4
403.535
1205.24
1993.83
2768.03
3533.22
4299.97
5081.98
5894.46
6752.9
7672.19
8666.08
9746.79
10924.7
12208
13602.9
15112.7
16738.4
18478
20326.9
22277.4
24318.6
26437
28615.9
30836
33075
35308.3
37508.6
39646.6
41690.5
43606.8
45359.8
46912.1
48224.6
49256.8
49967
50312.9
50252.3
49744
48749.4
47234.2
45170.1
42537.3
39326.9
35543.1
31205.4
26350.1
21031.9
15324.3
9319.69
3127.95
356.199
1067.73
1778.03
2490.06
3210.63
3949.82
4720.07
5535.08
6408.98
7355.54
8387.73
9517.18
10753.9
12105.9
13579.1
15176.8
16899.8
18745.9
20710.1
22784.2
24957
27214
29537.8
31907.8
34300.7
36690.1
39047.4
41341.1
43537.5
45600.7
47492.5
49172.9
50599.8
51729.8
52517.8
52918.3
52885.8
52376
51347.5
49763.5
47594
44818.7
41429.1
37431.4
32848.6
27722.2
22113.2
16102.1
9787.7
3284.03
323.936
973.673
1629.7
2298.26
2987.8
3708.88
4473.67
5295.26
6187.13
7162.47
8233.79
9412.4
10708.1
12128.8
13680.3
15365.9
17186.1
19138.7
21218.3
23416.3
25721
28117.2
30586.5
33107.4
35655.2
38202.1
40717.8
43168.9
45519.6
47731.8
49764.7
51575.5
53119.4
54349.4
55217.6
55674.9
55672.5
55162.8
54101.3
52448.7
50173.2
47253.3
43680.6
39462.9
34626
29215.6
23298.2
16960.4
10307.1
3457.85
301.695
908.732
1527.09
2165.46
2833.87
3543.66
4307.21
5137.58
6048
7051.46
8160.25
9385.58
10737.2
12222.9
13848.5
15617.2
17529.6
19583.2
21772.4
24088.3
26518.5
29047.4
31655.7
34320.8
37016.9
39714.9
42382.8
44985.4
47485.1
49841.3
52010.9
53948.6
55606.4
56934.7
57882.1
58396.2
58424.9
57917.5
56826.3
55109.4
52732.9
49674.2
45924.8
41493.3
36407.8
30717.7
24494.2
17829.4
10834.3
3634.56
285.988
862.824
1454.46
2071.44
2725.09
3427.6
4191.78
5030.87
5958.15
6986.59
8128.46
9394.93
10795.8
12338.8
14029.9
15872.3
17866.5
20009.8
22296.7
24717.7
27260.3
29908
32641
35435.9
38265.7
41100.3
43906
46646.3
49281.6
51769.4
54064.5
56119
57882.4
59302.2
60324.1
60892.7
60952.7
60450.3
59335
57562.4
55096.5
51913.5
48004.3
43378.3
38065.4
32118
25611.4
18642.7
11328.4
3800.28
274.267
828.502
1399.97
2000.56
2642.66
3339.16
4103.35
4948.74
5888.73
6936.39
8104.02
9402.86
10842.7
12431.5
14175
16076.6
18136.8
20352.9
22719.1
25226
27860.4
30605.7
33441.5
36343.7
39284.5
42232.7
45153.8
48009.7
50759.4
53358.9
55760.9
57915.5
59770.2
61270
62358
62976.2
63066.5
62572.5
61441.3
59625.9
57088.6
53804.3
49763.5
44975.9
39472.8
33308.9
26563
19336.2
11750.2
3941.81
264.597
800.058
1354.4
1940.45
2571.37
3260.58
4021.75
4868.62
5814.74
6873.23
8056.46
9375.69
10840.8
12459.7
14238.3
16179.9
18285.1
20551.3
22972.5
25539.2
28238.2
31052.6
33961.7
36940.8
39961.9
42992.9
45998.5
48939.9
51775
54458.4
56941.8
59173.5
61099.5
62662.7
63804.6
64464.9
64583.6
64101.9
62964.9
61123.9
58539.7
55186
51052.7
46149.7
40509.2
34187.7
27266.3
19849.6
12062.6
4046.72
255.468
773.017
1310.46
1881.2
2498.85
3177.19
3930.09
4771.4
5714.72
6773.18
7959.11
9283.78
10757
12386.8
14179
16137
18261.4
20549.6
22995.7
25590.3
28320.2
31168.4
34114.1
37132.6
40195.5
43270.8
46322.6
49311.8
52195.8
54928.5
57460.7
59740.3
61711.8
63317.5
64497.3
65189.8
65333.5
64868.3
63738
61892.7
59291.9
55908.5
51732.2
46772.5
41062.4
34659
27645
20126.7
12231.7
4103.52
245.696
743.857
1262.36
1814.86
2415.12
3077.02
3814.44
4641.16
5570.69
6616.03
7789.38
9101.86
10563.2
12181.3
13962.1
15908.9
18022.3
20299.9
22735.9
25321.1
28042.3
30883
33822.4
36836.1
39896
42970.2
46023.1
49015.6
51905.2
54646
57188.8
59481.2
61467.7
63090.3
64288.7
65001
65165.4
64721.3
63611.9
61786.7
59205
55839.1
51678.3
46732
41033
34638.5
27631.4
20118.3
12227.2
4102.11
234.368
709.854
1205.61
1735.22
2312.32
2950.6
3663.72
4465.19
5368.23
6385.53
7529.01
8809.52
10236.6
11817.9
13559.3
15464
17532.9
19763.4
22150.2
24684.1
27352.6
30139.4
33024.5
35984
38990.4
42012.5
45015.6
47961.3
50807.9
53510.3
56020.1
58285.6
60252.3
61862.8
63057.5
63775.3
63955
63536.5
62463.5
60685.9
58163.1
54867.7
50788.5
45934.9
40338.7
34056.5
27169.7
19783.5
12024.3
4034.14
220.806
668.987
1136.88
1637.68
2184.59
2790.86
3469.66
4234
5096.59
6069.6
7164.49
8391.67
9760.27
11277.8
12949.7
14779.4
16767.4
18911.8
21207.1
23644.9
26213.2
28896.4
31675.4
34527.3
37425.8
40340.8
43239.1
46083.7
48834.5
51448
53877.4
56072.9
57981.7
59548.2
60714.8
61422.1
61610.7
61222.3
60202.1
58501.5
56080.7
52912.9
48987.3
44312.3
38918.7
32861.2
26218.3
19092.1
11604.5
3893.39
204.554
619.889
1053.92
1519.13
2028.03
2593.11
3226.82
3941.4
4748.82
5660.53
6687.3
7838.94
9124.03
10549.6
12121
13841.3
15711.1
17728.6
19888.9
22184
24602.7
27130.6
29749.6
32438.3
35172.1
37922.8
40659
43345.9
45945.7
48417.4
50716.9
52797
54607.9
56096.9
57209.3
57889.1
58079.6
57725.7
56775.2
55181.8
52907.7
49927.2
46229.9
41823.5
36737.1
31022
24752.9
18026
10957
3676.21
185.356
561.811
955.495
1377.91
1840.58
2354.98
2932.54
3584.52
4321.88
5155.14
6094.17
7147.97
8324.43
9630.04
11069.6
12646.1
14360.2
16210.2
18191.6
20297.3
22517.1
24837.7
27242.7
29712.6
32224.8
34753.4
37269.8
39741.9
42135.2
44411.9
46531.4
48450.3
50122.8
51500.2
52532.1
53166.7
53351.8
53036.4
52172.2
50716.2
48633.6
45900.4
42506.7
38459.6
33785.6
28532.1
22767.7
16581.2
10079.1
3381.73
163.155
494.582
841.365
1213.76
1622
2076.34
2586.92
3163.76
3816.59
4554.78
5387.08
6321.5
7365.07
8523.56
9801.3
11200.9
12723
14366.2
16126.6
17997.8
19970.9
22034
24172.9
26370
28605.4
30856.2
33096.8
35299
37431.8
39461.7
41352.5
43065.8
44560.2
45792.8
46718.3
47290.6
47462.9
47189.5
46427.4
45138.1
43290.2
40862.1
37845.1
34245.2
30085.9
25409.6
20277.2
14768.1
8977.21
3012.08
138.067
418.573
712.193
1027.68
1373.78
1759.23
2192.68
2682.67
3237.52
3865.19
4573.15
5368.24
6256.45
7242.71
8330.75
9522.79
10819.5
12219.5
13719.7
15314.6
16996.7
18756
20580.2
22454.6
24362.1
26283.2
28196.2
30077
31899.2
33634.1
35251.1
36716.9
37996.6
39053.3
39848.2
40341.8
40494.1
40266
39620.6
38524.7
36951.5
34882.5
32309.9
29238.8
25689.5
21697.8
17316
12611.8
7666.68
2572.39
110.376
334.644
569.466
821.882
1098.93
1407.63
1754.95
2147.75