/*--------------------------------*- C++ -*----------------------------------*\
| =========                 |                                                 |
| \\      /  F ield         | OpenFOAM: The Open Source CFD Toolbox           |
|  \\    /   O peration     | Version:  5.x                                   |
|   \\  /    A nd           | Web:      www.OpenFOAM.org                      |
|    \\/     M anipulation  |                                                 |
\*---------------------------------------------------------------------------*/
FoamFile
{
    version     2.0;
    format      ascii;
    class       volScalarField;
    location    "0.3";
    object      gradTx;
}
// * * * * * * * * * * * * * * * * * * * * * * * * * * * * * * * * * * * * * //

dimensions      [0 -1 0 1 0 0 0];

internalField   nonuniform List<scalar> 
25000
(
4857.38
2140.55
1229.95
839.843
641.071
530.473
468.403
436.67
425.648
429.623
444.845
468.626
498.872
533.827
571.936
611.756
651.913
691.076
727.946
761.257
789.785
812.349
827.831
835.175
833.402
821.608
798.967
764.722
718.179
658.699
585.69
498.603
396.939
280.269
148.271
0.7755
-162.168
-340.224
-532.719
-738.623
-956.618
-1185.31
-1423.72
-1672.28
-1934.94
-2224.1
-2573.79
-3082.12
-4074.03
-6832.3
9547.35
5307.45
3391.79
2420.41
1883.17
1573.15
1396.73
1306.74
1276.86
1290.97
1338.3
1411.02
1502.96
1608.94
1724.31
1844.77
1966.21
2084.61
2196.1
2296.84
2383.16
2451.51
2498.49
2520.94
2515.89
2480.62
2412.62
2309.6
2169.48
1990.3
1770.27
1507.73
1201.17
849.291
451.12
6.15407
-485.437
-1022.61
-1603.27
-2224.21
-2881.29
-3570
-4286.83
-5031.9
-5814.4
-6664
-7657.31
-8985.94
-11147.4
-15512.5
12296.1
7553.85
5146.89
3814.08
3034.36
2570.2
2303.03
2168.42
2128.42
2158.86
2243.08
2368.73
2525.91
2706.17
2901.89
3105.95
3311.51
3511.89
3700.57
3871.16
4017.46
4133.5
4213.6
4252.39
4244.87
4186.44
4072.87
3900.27
3665.08
3364.01
2994
2552.23
2036.13
1443.5
772.7
22.9104
-805.529
-1710.75
-2689.03
-3734.66
-4840.14
-5996.98
-7197.66
-8439.31
-9730.88
-11107.1
-12657.9
-14594.7
-17417.2
-22371.2
14140.8
9205.45
6558.25
5015.97
4079.41
3509.75
3180.72
3019.8
2982.19
3038.2
3166.7
3351.57
3579.61
3839.39
4120.44
4412.9
4707.19
4993.97
5264.04
5508.4
5718.25
5885.14
6000.97
6058.13
6049.48
5968.44
5808.95
5565.45
5232.82
4806.31
4281.53
3654.4
2921.21
2078.82
1124.89
58.298
-1120.37
-2408.23
-3799.65
-5285.91
-6855.37
-8494.37
-10189.5
-11931.7
-13724.3
-15597.4
-17635.9
-20041.6
-23282.8
-28520.9
15499
10480
7713.26
6054.8
5025.33
4392.53
4029.97
3862.42
3841.61
3934.4
4116.45
4368.64
4674.94
5021.17
5394.2
5781.45
6170.68
6549.82
6906.96
7230.36
7508.59
7730.57
7885.71
7963.99
7956.04
7853.16
7647.35
7331.23
6897.98
6341.31
5655.33
4834.59
3874.18
2769.89
1518.66
119.07
-1427.93
-3118.27
-4943.98
-6892.76
-8947.92
-11089.3
-13295.7
-15549
-17842.5
-20195.4
-22679.4
-25477.6
-29028.6
-34447.3
16567.7
11510.5
8684.99
6966.47
5888.88
5226.61
4855.59
4700.35
4711.2
4852.96
5099.04
5427.94
5821.22
6262.2
6735.2
7225.02
7716.72
8195.47
8646.58
9055.51
9408.03
9690.33
9889.16
9991.99
9987.02
9863.32
9610.75
9219.97
8682.32
7989.77
7134.81
6110.47
4910.49
3529.51
1963.68
211.292
-1726.26
-3843.45
-6129.61
-8568.18
-11136.5
-13806.6
-16547.5
-19329.8
-22133.9
-24963.9
-27875.1
-31030.7
-34845.2
-40406.4
17453.3
12379.4
9527.83
7783.7
6688.92
6023.06
5664.64
5538.94
5595.83
5798.96
6120.12
6535.91
7025.78
7570.76
8152.73
8753.9
9356.62
9943.26
10496.2
10998.1
11431.7
11780.3
12027.9
12159.3
12160
12016.7
11717
11249.3
10603.1
9768.21
8735.49
7496.24
6042.67
4368.16
2467.99
340.139
-2013.44
-4585.54
-7362.38
-10322.5
-13436.3
-16666.8
-19971.7
-23308.1
-26641.2
-29958.2
-33296.1
-36798.5
-40860.3
-46551
18218.6
13139.5
10280.9
8533.14
7442.79
6793.04
6464.56
6383.55
6499.83
6776.37
7183.71
7696.87
8293.4
8952.19
9652.73
10374.7
11097.6
11801.1
12464.5
13067.3
13589.3
14010.9
14312.9
14477.1
14486.6
14325.2
13978.1
13431.3
12672
11688
10468.2
9001.9
7279.66
5293.47
3037.58
509.709
-2287.6
-5345.26
-8645.92
-12162.6
-15858
-19684.7
-23587.7
-27509.2
-31397.1
-35220.3
-38996.3
-42849.8
-47157.8
-52975.9
18903.3
13825.7
10972.1
9235.24
8164.77
7546.21
7261.8
7238.53
7426.3
7787.52
8291.77
8912.63
9625.9
10408.4
11237.3
12089.7
12942.3
13771.8
14554.5
15266.6
15884.8
16386.2
16748.4
16950.3
16971.8
16794
16399.3
15771.3
14894.6
13754.8
12338.3
10632.6
8626.27
6309.72
3676.13
722.822
-2546.96
-6122.04
-9981.16
-14091.2
-18406.3
-22867.6
-27406.2
-31947.6
-36421.1
-40775.7
-45008.9
-49226
-53787.3
-59735.4
19533.4
14461.7
11620.7
9904.9
8865.61
8289.86
8060.99
8106.53
8376.41
8832.59
9443.7
10182
11021.7
11937.5
12904.3
13896.5
14888.1
15852.8
16763.4
17593.2
18315.3
18903.3
19331.7
19576
19613
19420.7
18978.6
18267.5
17269.4
15967.2
14345.1
12388
10082.6
7417.48
4384.59
980.836
-2789.82
-6913.93
-11366
-16106.3
-21079.4
-26214.4
-31427
-36624.6
-41716.9
-46631.6
-51345
-55942.7
-60768.1
-66851.6
20125.7
15062.8
12239.8
10552.3
9552.57
9028.63
8864.48
8988.03
9349.11
9909.2
10636.1
11500.7
12475.5
13533.4
14646.9
15787.7
16927.1
18035.3
19082.2
20037.5
20870.7
21552
22052.4
22343.8
22399.8
22195
21706
20910.4
19787.4
18317.2
16481.2
14262
11643.7
8613.19
5160.98
1283.47
-3014.63
-7717.48
-12795
-18200.5
-23868.3
-29714.4
-35638
-41527.7
-47271.6
-52775.4
-57993.1
-62989.8
-68091.7
-74316.8
20691
15638.8
12837.7
11183.6
10229.7
9764.36
9672.14
9881.06
10340.8
11012.3
11862.3
12860.8
13978.4
15186
16453.7
17750.8
19045.4
20304.7
21495.2
22582.8
23533.7
24314.3
24891.9
25234.9
25313.2
25098.3
24563.1
23682.3
22431.8
20789.1
18732.5
16242
13299.3
9888.97
6000.17
1628.68
-3220.07
-8527.72
-14259.5
-20361
-26756.1
-33346.8
-40014.9
-46629
-53054.9
-59174.7
-64919.4
-70332.7
-75723.2
-82095.9
21235.3
16195.2
13418.6
11801.7
10897.9
10496.3
10481.3
10781.2
11345.2
12133.8
13113
14251.1
15517.3
16880.6
18308.6
19768
21223.9
22640.3
23980.2
25205.9
26279.9
27164.8
27824.1
28222.6
28326.4
28103.4
27523.2
26557.1
25177.9
23359.7
21077.8
18309.4
15033.5
11232.5
6893.78
2012.54
-3405.12
-9338.26
-15747.2
-22569.6
-29718.4
-37080.8
-44520.9
-51886.1
-59019
-65777.4
-72068.1
-77913
-83602.3
-90127.9
21761.1
16734.1
13983.7
12406.4
11555.8
11221.1
11287
11681.5
12353.7
13263.3
14375.3
15657
17075.8
18598.6
20191
21816.7
23438
25015.5
26508.8
27876.6
29077.6
30070.5
30815.1
31272.1
31404.2
31175.4
30551.8
29501.3
27993.3
25998.4
23489.2
20439.3
16825.3
12627
7830.2
2429.21
-3569.16
-10141.4
-17242.7
-24802.8
-32723.2
-40876.1
-49107.1
-57242
-65099.5
-72512.2
-79362.5
-85649.8
-91645.3
-98327.4
22268.4
17254.9
14531.7
12995.2
12199.4
11933.4
12082
12573.1
13355.2
14387.5
15634.1
17060.9
18633.9
20317.9
22076.1
23869.7
25658.1
27398.5
29047.1
30559
31888.9
32992
33824
34341.8
34504.3
34271.9
33606.9
32473.8
30838.4
28668.2
25932.2
22601.2
18648.5
14051.8
8794.75
2871.02
-3712
-10928.2
-18727.8
-27032.4
-35731.9
-44683.4
-53713.6
-62626.5
-71216.4
-79290.8
-86707.1
-93441.6
-99746.7
-106587
22754.8
17754.9
15059
13563.8
12823
12625.9
12857.4
13444.8
14336.6
15491.1
16871.6
18442.6
20168.8
22012.8
23935.8
25896.2
27850.5
29753
31556.2
33211.7
34670.6
35884
36804
37383.8
37578.2
37344
36640.2
35427.3
33667.9
31325.9
28367.2
24759.3
20472.7
15482.3
9770
3328.61
-3833.98
-11689.1
-20182
-29226.2
-38700.1
-48445.6
-58270.9
-67958
-77277
-86010.1
-93989.7
-101170
-107783
-114781
23216.3
18229.9
15560.9
14106.1
13419.4
13290
13602.5
14284.3
15283.2
16557.1
18068.2
19780.1
21655.5
23655.6
25739.2
27862.3
29978.6
32039.2
33993.6
35789.6
37374.9
38696.9
39703.8
40345.2
40572.3
40338.2
39598.2
38309.5
36431.1
33923.9
30750
26874.1
22263.7
16891
10736.2
3791.12
-3935.91
-12413.8
-21582.8
-31348.8
-41578.8
-52100
-62702.2
-73145.9
-83177.7
-92555
-101086
-108701
-115616
-122768
23647.8
18674.4
16031.3
14615.4
13980.5
13915.9
14306.1
15078.1
16179.5
17567.5
19203.4
21049.6
23067.6
25216.7
27453.7
29732.3
32003.4
34215.3
36314.3
38245.1
39951.7
41378.1
42469
43170.4
43429.9
43197.2
42424.2
41064.7
39074.5
36411
33033.5
28903.2
23984.9
18248.5
11672.1
4246.62
-4019.09
-13091.7
-22906.9
-33362.9
-44316.2
-55579.7
-66925.5
-78093.8
-88808.3
-98802.5
-107861
-115894
-123098
-130398
24043.6
19082.3
16463.4
15083.8
14497.4
14493.3
14956
15812.3
17009.2
18503.5
20255.8
22227.3
24378.2
26666.2
29046.2
31469.8
33885.3
36238.4
38472.5
40529.3
42349.5
43874
45044
45802.1
46092.9
45862.7
45060.2
43636.1
41542.9
38735.1
35168.9
30802.8
25598.6
19524
12555.3
4682.5
-4085.23
-13712.5
-24130.5
-35230.7
-46859.3
-58816.2
-70857
-82702.5
-94055.2
-104626
-114178
-122602
-130076
-137514
24397.6
19447.2
16850.3
15503.6
14961.1
15011.9
15540.3
16472.9
17756.4
19347
21204.6
23289.5
25560.7
27974.5
30484
33038.8
35585.3
38066.5
40423.2
42594.3
44517.9
46131.6
47373.8
48184.1
48504
48277
47448.7
45967
43781.6
40844.2
37108.2
32529.4
27067.2
20687
13363.6
5085.96
-4136.32
-14266
-25230.4
-36914.7
-49155.9
-61741.9
-74413.4
-86873.6
-98805.8
-109901
-119901
-128679
-136399
-143963
24703.6
19762.9
17185.1
15867.2
15363.1
15461.8
16047.5
17046.7
18405.8
20080.5
22030
24213.9
26590.1
29113.6
31736.2
34405.7
37066.4
39659.5
42123.5
44394.8
46408.8
48100.8
49406.5
50263
50608.9
50385.2
49535.1
48003.9
45738.8
42689
38805.4
34041.5
28354.7
21708.2
14075.4
5444.61
-4174.49
-14743
-26184.9
-38379.6
-51156.5
-64292.7
-77515.9
-90514
-102953
-114507
-124900
-133988
-141922
-149597
24956.1
20023.3
17461.5
16167.6
15695.3
15833.9
16467.3
17521.8
18943.7
20688.2
22714
24980.1
27443.5
30058.3
32774.9
35539.7
38295.5
40981.7
43534.8
45889.5
47978.9
49736.3
51095.1
51990.2
52358.1
52137.7
51270
49698.1
47367.3
44224.5
40218.8
35301.6
29428.4
22560.9
14671.3
5747.01
-4201.9
-15135.2
-26974.2
-39593.6
-52816.3
-66410.4
-80092.9
-93538.9
-106400
-118336
-129056
-138402
-146516
-154282
25150.2
20223.5
17674
16398.6
15951
16120.3
16790.5
17887.8
19358.1
21156.5
23241.4
25571
28101.8
30787
33576.1
36414.6
39243.9
42002.1
44624.2
47043.3
49191.2
50999.2
52399.2
53324.3
53709.6
53492
52610.9
51007.9
48626.5
45412.2
41312.4
36277.1
30260.1
23222.1
15134.1
5983.23
-4220.5
-15435.8
-27581.7
-40529.6
-54096.9
-68045.3
-82083
-95875.5
-109064
-121295
-132267
-141814
-150066
-157903
25281.8
20359.4
17818.3
16555.4
16124.5
16314.8
17010.1
18136.5
19639.8
21474.9
23599.9
25972.8
28549.5
31282.7
34121.2
37009.8
39889.2
42696.4
45365.5
47828.6
50016.3
51858.9
53287
54232.7
54629.8
54414.2
53524.2
51900.1
49484.5
46221.7
42058
36942.3
30827.6
23673.5
15450.5
6145.33
-4231.92
-15639.3
-27994.3
-41165.9
-54968.2
-69157.9
-83437.9
-97466.6
-110878
-123310
-134455
-144138
-152485
-160370
25348.3
20428
17891.2
16634.6
16212.3
16413.2
17121.1
18262.3
19782.3
21636
23781.3
26176.1
28776
31533.5
34397.1
37311.1
40215.8
43047.8
45740.8
48226.2
50434.1
52294.1
53736.5
54692.7
55095.9
54881.3
53986.8
52352.1
49919.2
46631.8
42435.8
37279.4
31115.3
23902.5
15611.1
6227.8
-4237.34
-15742
-28202.9
-41487.9
-55409.1
-69721.2
-84123.9
-98272.2
-111796
-124331
-135563
-145315
-153710
-161620
25348.3
20428
17891.2
16634.6
16212.3
16413.2
17121.1
18262.3
19782.3
21636
23781.3
26176.1
28776
31533.5
34397.1
37311.1
40215.8
43047.8
45740.8
48226.2
50434.1
52294.1
53736.5
54692.7
55095.8
54881.3
53986.8
52352.1
49919.2
46631.8
42435.8
37279.4
31115.2
23902.5
15611.1
6227.78
-4237.36
-15742
-28203
-41487.9
-55409.1
-69721.2
-84123.8
-98272.2
-111796
-124330
-135563
-145315
-153710
-161620
25281.8
20359.4
17818.3
16555.4
16124.5
16314.8
17010.1
18136.5
19639.8
21475
23599.9
25972.8
28549.5
31282.7
34121.2
37009.8
39889.2
42696.4
45365.5
47828.6
50016.3
51858.9
53287
54232.7
54629.8
54414.2
53524.2
51900.1
49484.5
46221.7
42057.9
36942.2
30827.5
23673.5
15450.5
6145.27
-4231.98
-15639.3
-27994.4
-41165.9
-54968.2
-69157.9
-83437.8
-97466.5
-110877
-123310
-134455
-144138
-152485
-160370
25150.2
20223.5
17674
16398.5
15950.9
16120.3
16790.5
17887.8
19358.1
21156.5
23241.4
25571
28101.8
30787
33576.1
36414.6
39243.9
42002
44624.2
47043.3
49191.2
50999.2
52399.2
53324.3
53709.5
53491.9
52610.8
51007.8
48626.4
45412.1
41312.3
36277
30260
23222
15134
5983.13
-4220.6
-15435.9
-27581.8
-40529.6
-54096.9
-68045.2
-82082.9
-95875.4
-109064
-121294
-132267
-141814
-150066
-157903
24956.1
20023.3
17461.5
16167.5
15695.3
15833.9
16467.3
17521.8
18943.7
20688.2
22714
24980.1
27443.6
30058.3
32774.9
35539.7
38295.5
40981.7
43534.8
45889.5
47978.9
49736.3
51095.1
51990.1
52358.1
52137.7
51269.9
49698
47367.2
44224.4
40218.6
35301.5
29428.3
22560.8
14671.1
5746.87
-4202.03
-15135.4
-26974.3
-39593.7
-52816.3
-66410.4
-80092.8
-93538.7
-106400
-118335
-129055
-138402
-146516
-154282
24703.6
19762.8
17185.1
15867.2
15363.1
15461.8
16047.6
17046.7
18405.8
20080.5
22030
24213.9
26590.1
29113.6
31736.2
34405.7
37066.4
39659.5
42123.5
44394.7
46408.8
48100.8
49406.5
50262.9
50608.8
50385.2
49535.1
48003.8
45738.7
42688.9
38805.3
34041.4
28354.5
21708.1
14075.3
5444.44
-4174.66
-14743.1
-26185
-38379.7
-51156.5
-64292.6
-77515.7
-90513.8
-102953
-114506
-124899
-133987
-141922
-149597
24397.6
19447.2
16850.3
15503.6
14961.1
15011.9
15540.3
16472.9
17756.4
19347
21204.6
23289.5
25560.7
27974.5
30484
33038.8
35585.2
38066.4
40423.1
42594.3
44517.8
46131.5
47373.7
48184.1
48504
48276.9
47448.6
45966.9
43781.5
40844.1
37108
32529.2
27067
20686.8
13363.4
5085.76
-4136.5
-14266.1
-25230.6
-36914.7
-49155.9
-61741.8
-74413.2
-86873.4
-98805.4
-109900
-119901
-128679
-136398
-143963
24043.6
19082.3
16463.4
15083.8
14497.3
14493.3
14956
15812.3
17009.2
18503.6
20255.8
22227.3
24378.2
26666.2
29046.2
31469.8
33885.3
36238.4
38472.5
40529.3
42349.5
43873.9
45043.9
45802.1
46092.8
45862.6
45060.1
43635.9
41542.8
38735
35168.7
30802.6
25598.4
19523.8
12555.1
4682.28
-4085.44
-13712.7
-24130.7
-35230.8
-46859.3
-58816.1
-70856.8
-82702.2
-94054.8
-104626
-114178
-122601
-130075
-137514
23647.8
18674.4
16031.3
14615.3
13980.5
13915.9
14306.1
15078.1
16179.5
17567.5
19203.4
21049.6
23067.6
25216.8
27453.7
29732.3
32003.4
34215.3
36314.3
38245
39951.6
41378
42469
43170.3
43429.8
43197.1
42424.1
41064.6
39074.4
36410.9
33033.3
28903
23984.7
18248.2
11671.9
4246.39
-4019.31
-13091.9
-22907.1
-33363
-44316.2
-55579.6
-66925.3
-78093.5
-88807.9
-98802
-107861
-115893
-123097
-130398
23216.2
18229.9
15560.9
14106.1
13419.4
13290
13602.5
14284.3
15283.2
16557.1
18068.2
19780.1
21655.5
23655.6
25739.2
27862.3
29978.6
32039.2
33993.5
35789.6
37374.9
38696.8
39703.8
40345.1
40572.2
40338.1
39598
38309.3
36431
33923.7
30749.9
26873.9
22263.5
16890.8
10736
3790.88
-3936.14
-12414
-21583
-31348.9
-41578.8
-52099.9
-62702
-73145.6
-83177.3
-92554.4
-101085
-108700
-115616
-122768
22754.7
17754.9
15059
13563.7
12822.9
12625.9
12857.4
13444.8
14336.6
15491.1
16871.6
18442.7
20168.8
22012.8
23935.8
25896.2
27850.5
29752.9
31556.1
33211.6
34670.5
35883.9
36803.9
37383.7
37578
37343.9
36640
35427.1
33667.7
31325.8
28367
24759.1
20472.5
15482
9769.76
3328.36
-3834.21
-11689.3
-20182.2
-29226.3
-38700.1
-48445.5
-58270.7
-67957.6
-77276.5
-86009.5
-93989.2
-101169
-107783
-114781
22268.4
17254.9
14531.6
12995.2
12199.3
11933.4
12082
12573.1
13355.2
14387.5
15634.1
17060.9
18633.9
20317.9
22076.1
23869.7
25658
27398.5
29047
30558.9
31888.9
32991.9
33823.9
34341.7
34504.2
34271.7
33606.8
32473.7
30838.3
28668
25932
22601
18648.3
14051.6
8794.52
2870.79
-3712.23
-10928.4
-18728
-27032.5
-35731.9
-44683.3
-53713.4
-62626.1
-71216
-79290.3
-86706.5
-93441
-99746.2
-106587
21761.1
16734.1
13983.7
12406.3
11555.7
11221.1
11287
11681.5
12353.7
13263.3
14375.3
15657
17075.8
18598.6
20191
21816.7
23438
25015.5
26508.8
27876.6
29077.5
30070.5
30815
31272
31404.1
31175.3
30551.7
29501.2
27993.1
25998.3
23489
20439.2
16825.1
12626.8
7829.97
2428.98
-3569.37
-10141.6
-17242.8
-24802.9
-32723.2
-40876
-49106.9
-57241.7
-65099
-72511.7
-79362
-85649.3
-91644.8
-98327.1
21235.2
16195.2
13418.6
11801.7
10897.9
10496.2
10481.3
10781.2
11345.2
12133.8
13113
14251.1
15517.3
16880.6
18308.6
19768
21223.9
22640.3
23980.1
25205.9
26279.8
27164.7
27824.1
28222.5
28326.3
28103.3
27523.1
26557
25177.8
23359.5
21077.7
18309.3
15033.3
11232.3
6893.57
2012.32
-3405.32
-9338.45
-15747.3
-22569.7
-29718.4
-37080.7
-44520.7
-51885.8
-59018.6
-65776.9
-72067.6
-77912.5
-83601.9
-90127.6
20690.9
15638.7
12837.6
11183.6
10229.6
9764.32
9672.12
9881.04
10340.8
11012.2
11862.3
12860.8
13978.4
15186
16453.7
17750.8
19045.4
20304.7
21495.2
22582.8
23533.7
24314.3
24891.9
25234.9
25313.1
25098.2
24563
23682.1
22431.7
20789
18732.4
16241.9
13299.1
9888.79
5999.98
1628.49
-3220.25
-8527.89
-14259.6
-20361.1
-26756.2
-33346.7
-40014.7
-46628.7
-53054.5
-59174.3
-64918.9
-70332.2
-75722.8
-82095.6
20125.7
15062.7
12239.8
10552.3
9552.53
9028.59
8864.45
8988.01
9349.1
9909.19
10636.1
11500.7
12475.5
13533.4
14646.9
15787.7
16927.1
18035.3
19082.2
20037.4
20870.6
21551.9
22052.3
22343.7
22399.7
22194.9
21705.9
20910.3
19787.3
18317.1
16481.1
14261.8
11643.6
8613.03
5160.81
1283.3
-3014.8
-7717.63
-12795.2
-18200.6
-23868.3
-29714.3
-35637.8
-41527.4
-47271.3
-52775
-57992.6
-62989.3
-68091.3
-74316.4
19533.3
14461.6
11620.6
9904.84
8865.55
8289.82
8060.96
8106.51
8376.4
8832.58
9443.69
10182
11021.7
11937.5
12904.2
13896.5
14888.1
15852.7
16763.4
17593.2
18315.2
18903.2
19331.6
19576
19612.9
19420.6
18978.5
18267.4
17269.3
15967.1
14345
12387.9
10082.5
7417.34
4384.44
980.686
-2789.97
-6914.06
-11366.1
-16106.4
-21079.5
-26214.4
-31426.8
-36624.4
-41716.5
-46631.2
-51344.5
-55942.2
-60767.7
-66851.3
18903.3
13825.7
10972
9235.18
8164.71
7546.16
7261.76
7238.5
7426.28
7787.51
8291.76
8912.62
9625.89
10408.4
11237.3
12089.6
12942.3
13771.8
14554.4
15266.6
15884.8
16386.1
16748.3
16950.2
16971.7
16793.9
16399.2
15771.2
14894.5
13754.7
12338.2
10632.5
8626.16
6309.6
3676
722.695
-2547.09
-6122.15
-9981.25
-14091.3
-18406.3
-22867.6
-27406.1
-31947.4
-36420.8
-40775.4
-45008.6
-49225.7
-53786.9
-59735.1
18218.5
13139.4
10280.9
8533.08
7442.73
6793
6464.52
6383.52
6499.81
6776.35
7183.7
7696.86
8293.39
8952.18
9652.71
10374.7
11097.6
11801.1
12464.4
13067.3
13589.3
14010.8
14312.8
14477.1
14486.5
14325.1
13978
13431.2
12671.9
11688
10468.1
9001.81
7279.57
5293.37
3037.48
509.605
-2287.71
-5345.35
-8645.99
-12162.7
-15858
-19684.6
-23587.6
-27509
-31396.9
-35220
-38996
-42849.5
-47157.5
-52975.6
17453.2
12379.3
9527.77
7783.64
6688.86
6023.01
5664.6
5538.91
5595.8
5798.94
6120.1
6535.9
7025.77
7570.75
8152.71
8753.88
9356.6
9943.23
10496.2
10998
11431.6
11780.3
12027.9
12159.2
12159.9
12016.6
11716.9
11249.3
10603
9768.15
8735.42
7496.17
6042.59
4368.09
2467.9
340.056
-2013.52
-4585.62
-7362.44
-10322.5
-13436.3
-16666.8
-19971.6
-23308
-26640.9
-29957.9
-33295.8
-36798.2
-40860
-46550.8
16567.7
11510.5
8684.93
6966.42
5888.82
5226.57
4855.55
4700.32
4711.18
4852.95
5099.03
5427.93
5821.21
6262.19
6735.18
7225
7716.7
8195.45
8646.55
9055.48
9407.99
9690.29
9889.12
9991.94
9986.98
9863.27
9610.7
9219.92
8682.27
7989.72
7134.75
6110.42
4910.43
3529.45
1963.62
211.226
-1726.32
-3843.51
-6129.66
-8568.2
-11136.5
-13806.6
-16547.4
-19329.7
-22133.7
-24963.7
-27874.9
-31030.4
-34844.9
-40406.2
15498.9
10480
7713.22
6054.75
5025.29
4392.49
4029.94
3862.39
3841.59
3934.38
4116.44
4368.62
4674.93
5021.16
5394.18
5781.44
6170.67
6549.8
6906.93
7230.34
7508.57
7730.54
7885.68
7963.96
7956
7853.13
7647.31
7331.19
6897.95
6341.27
5655.29
4834.55
3874.13
2769.84
1518.61
119.019
-1427.98
-3118.31
-4944.02
-6892.78
-8947.93
-11089.3
-13295.6
-15548.9
-17842.4
-20195.2
-22679.2
-25477.4
-29028.4
-34447.1
14140.8
9205.42
6558.21
5015.93
4079.37
3509.72
3180.7
3019.78
2982.18
3038.19
3166.69
3351.56
3579.61
3839.38
4120.44
4412.89
4707.18
4993.96
5264.03
5508.38
5718.23
5885.12
6000.95
6058.1
6049.45
5968.41
5808.92
5565.42
5232.79
4806.28
4281.5
3654.37
2921.18
2078.79
1124.86
58.2588
-1120.41
-2408.27
-3799.68
-5285.93
-6855.37
-8494.36
-10189.4
-11931.6
-13724.2
-15597.2
-17635.8
-20041.4
-23282.6
-28520.7
12296
7553.83
5146.86
3814.06
3034.34
2570.18
2303.01
2168.41
2128.41
2158.85
2243.07
2368.73
2525.9
2706.16
2901.88
3105.95
3311.5
3511.88
3700.55
3871.14
4017.45
4133.49
4213.58
4252.37
4244.85
4186.43
4072.85
3900.25
3665.06
3363.99
2993.98
2552.21
2036.11
1443.47
772.674
22.8824
-805.558
-1710.78
-2689.05
-3734.68
-4840.14
-5996.97
-7197.63
-8439.25
-9730.8
-11107
-12657.8
-14594.6
-17417.1
-22371
9547.34
5307.44
3391.78
2420.39
1883.16
1573.13
1396.72
1306.73
1276.85
1290.97
1338.3
1411.02
1502.96
1608.93
1724.31
1844.77
1966.2
2084.61
2196.09
2296.84
2383.16
2451.5
2498.48
2520.93
2515.88
2480.61
2412.61
2309.59
2169.47
1990.29
1770.26
1507.72
1201.16
849.277
451.104
6.13707
-485.455
-1022.63
-1603.29
-2224.22
-2881.29
-3570
-4286.81
-5031.87
-5814.36
-6663.94
-7657.24
-8985.87
-11147.3
-15512.4
4857.38
2140.55
1229.95
839.837
641.064
530.467
468.399
436.667
425.646
429.621
444.843
468.625
498.87
533.826
571.934
611.755
651.912
691.074
727.944
761.255
789.782
812.347
827.828
835.171
833.398
821.605
798.964
764.719
718.176
658.696
585.687
498.6
396.935
280.265
148.266
0.770226
-162.173
-340.23
-532.724
-738.626
-956.62
-1185.31
-1423.72
-1672.27
-1934.92
-2224.08
-2573.77
-3082.09
-4074.01
-6832.28
2139.54
1465.14
1021.35
760.172
604.733
511.495
457.41
429.728
420.891
426.077
441.962
466.078
496.451
531.4
569.411
609.071
649.025
687.954
724.573
757.624
785.89
808.199
823.439
830.565
828.603
816.659
793.916
759.626
713.108
653.733
580.92
494.135
392.894
276.783
145.496
-1.11817
-162.988
-339.752
-530.701
-734.748
-950.475
-1176.3
-1410.86
-1653.72
-1906.85
-2177.24
-2482.4
-2860.84
-3385.28
-4100.77
5303.49
3950.16
2894.74
2210.38
1782.04
1518.81
1364.77
1286.36
1262.8
1280.43
1329.7
1403.39
1495.69
1601.63
1716.7
1836.67
1957.49
2075.19
2185.91
2285.87
2371.4
2438.97
2485.22
2507.01
2501.39
2465.66
2397.35
2294.2
2154.14
1975.27
1755.84
1494.21
1188.92
838.729
442.702
0.394834
-487.961
-1021.24
-1597.25
-2212.62
-2862.91
-3543.09
-4248.54
-4977.08
-5732.53
-6531.06
-7411.83
-8450.54
-9749.72
-11227.2
7545.56
5886.63
4482.08
3513.83
2882.86
2486.22
2252.57
2135.75
2105.61
2141.59
2228.86
2356.03
2513.75
2693.91
2889.09
3092.31
3296.8
3495.98
3683.37
3852.62
3997.58
4112.31
4191.17
4228.83
4220.34
4161.14
4047.03
3874.19
3639.12
3338.57
2969.55
2529.31
2015.36
1425.56
758.377
13.0651
-809.929
-1708.61
-2679.1
-3715.42
-4809.63
-5952.44
-7134.71
-8350.17
-9600.29
-10901.8
-12297.6
-13865
-15681.7
-17550.6
9191.44
7392.03
5798.93
4657.04
3891.38
3402.47
3114.81
2976.37
2951.41
3014.59
3147.02
3333.82
3562.51
3822.05
4102.28
4393.49
4686.25
4971.29
5239.5
5481.94
5689.86
5854.87
5968.92
6024.46
6014.41
5932.25
5771.99
5528.13
5195.65
4769.87
4246.49
3621.53
2891.39
2053.03
1104.24
44.0065
-1126.93
-2405.53
-3785.94
-5259.11
-6812.86
-8432.53
-10102.7
-11810.5
-13550.3
-15332.3
-17191.1
-19189.3
-21371.5
-23471.1
10459
8592.41
6899.67
5658.21
4811.58
4267.54
3951.56
3809.79
3803.68
3904.85
4091.48
4345.86
4652.78
4998.57
5370.42
5755.98
6143.15
6519.97
6874.63
7195.49
7471.16
7690.64
7843.42
7919.54
7909.72
7805.35
7598.5
7281.88
6848.81
6293.07
5608.91
4791.01
3834.58
2735.59
1491.09
99.8479
-1437.03
-3115.25
-4926.63
-6858.47
-8893.48
-11010.4
-13185.8
-15397.4
-17629.3
-19879.7
-22169.1
-24541
-27011.5
-29274.5
11481.2
9582.3
7839.05
6545.46
5657.1
5088.34
4767.2
4639.95
4666.9
4817.86
5068.92
5400.1
5793.87
6234.12
6705.51
7193.12
7682.17
8157.97
8605.94
9011.62
9360.89
9640.02
9835.86
9935.95
9928.6
9802.98
9549.07
9157.64
8620.16
7928.75
7076.04
6055.25
4860.25
3485.89
1928.49
186.545
-1738.35
-3840.44
-6108.78
-8526.42
-11070.1
-13710.6
-16414.9
-19149.1
-21884.1
-24603.3
-27310.4
-30029.3
-32753.2
-35152
12340.6
10427.3
8661.79
7346.48
6444.39
5874.78
5568.26
5471.95
5545.81
5758.62
6084.94
6502.95
6993.07
7536.92
8116.79
8715.15
9314.57
9897.55
10446.6
10944.5
11374.1
11718.8
11962.7
12090.7
12088.5
11942.8
11641.4
11172.9
10526.8
9693.3
8663.28
7428.3
5980.77
4314.29
2424.35
309.186
-2029.04
-4582.87
-7338.23
-10273.3
-13357.8
-16553.6
-19816.2
-23098.5
-26356.2
-29555.7
-32682.6
-35741.6
-38707.3
-41232.3
13090
11172.6
9401.83
8084.85
7189.05
6637.09
6361.69
6310.88
6444.62
6731.05
7143.52
7658.7
8255.12
8912.3
9610.15
10328.6
11047.5
11746.6
12405.3
13003.3
13520.5
13937.3
14234.8
14395
14400.9
14236.6
13887.4
13339.5
12580.4
11598
10381.3
8920.07
7204.99
5228.33
2984.62
471.806
-2307.28
-5343.29
-8618.58
-12105.8
-15767
-19553.8
-23409
-27270.6
-31077.1
-34776.9
-38336.3
-41741.4
-44949.6
-47599.7
13764.5
11849.2
10084.1
8779.08
7904.15
7384.22
7153.52
7160.85
7366.27
7737.37
8246.57
8869.11
9581.81
10362.1
11187.7
12035.8
12883.7
13707.9
14484.9
15191.4
15803.9
16299.6
16656.5
16853.6
16870.8
16689.5
16292.3
15663
14786.4
13648.3
12235.5
10535.7
8537.66
6232.25
3612.88
677.188
-2571.31
-6121.14
-9950.76
-14026.7
-18302.5
-22718.5
-27203.5
-31679.1
-36065.4
-40291.1
-44302.6
-48067.2
-51525.4
-54304
14387.6
12478.4
10726.4
9442.94
8599.67
8122.96
7948.07
8024.34
8311.83
8777.71
9393.45
10133
10971.5
11884.5
12847.2
13834.4
14820.3
15778.7
16682.9
17506
18221.4
18802.9
19225.1
19463.7
19495.6
19299.2
18854.1
18141.4
17143.3
15843.1
14225.1
12274.7
9978.9
7326.6
4310.12
926.688
-2819.42
-6914.45
-11332.7
-16034
-20962.5
-26046.4
-31199.4
-36325.2
-41324.4
-46104.6
-50591.5
-54732.6
-58452.1
-61364.6
14975
13074.6
11340.8
10085.9
9282.35
8857.56
8747.44
8901.64
9280.15
9849.63
10580.7
11446
12419.1
13473.4
14582
15716.9
16849.6
17950.7
18990
19937.5
20763
21436.8
21930
22214.8
22264.9
22055.4
21562.8
20765.3
19642.2
18174.1
16342.8
14131.1
11523.8
8507.88
5074.37
1220.06
-3050.05
-7719.78
-12758.8
-18120.1
-23737.7
-29526.6
-35384.5
-41196.1
-46841
-52204.7
-57190.9
-61727
-65720.3
-68772.9
15536.4
13646.8
11935
10713.6
9955.84
9589.65
9551.34
9790.71
10267.6
10948
11801.8
12800.3
13915.5
15118.7
16380.7
17670.9
18957.9
20208.9
21390.8
22469.6
23411.7
24183.6
24753
25088.4
25160
24939.5
24400.2
23517
22266.4
20626
18574.6
16092.6
13162.1
9768.29
5900.6
1555.31
-3261.83
-8532.12
-14220.5
-20272.4
-26611.4
-33138.6
-39734.6
-46264.1
-52584.7
-58558.6
-64066.8
-69015.6
-73294.5
-76493.3
16077.7
14200.3
12512.9
11328.6
10620.9
10318.3
10357
10687
11267.8
12064.9
13047.2
14184.7
15447.7
16805.8
18227.2
19678.7
21125.9
22533
23863
25078.8
26142.8
27017.9
27667.9
28057.8
28154
27924.6
27339.8
26371
24991.4
23175.6
20899.5
18140.5
14878.3
11095.6
6780.55
1928.61
-3453.68
-9345.05
-15705.5
-22472.7
-29559.2
-36851.7
-44212.9
-51486.9
-58508
-65114.5
-71163.6
-76539.8
-81114.7
-84464.9
16601.1
14736.6
13075.4
11930.5
11276
11040
11159.4
11583.7
12272.2
13189.7
14304.3
15584.6
16999.4
18516.2
20100.9
21717.8
23329.3
24896.3
26378.7
27735.3
28925.1
29907.1
30641.2
31088.6
31212
30976.1
30347.2
29293.5
27784.9
25792.7
23289.7
20250.3
16651.3
12473.4
7702.77
2334.27
-3624.87
-10150.8
-17198.5
-24697.6
-32549.4
-40625.7
-48770.9
-56807.6
-64546.7
-71801.5
-78404.9
-84219.2
-89097.4
-92602.7
17106.2
15255.2
13621.1
12516.9
11916.9
11749.5
11951.2
12471.7
13269.6
14309.3
15557.8
16982.6
18550.7
20227.8
21977.4
23761.1
25538.5
27267.3
28903.8
30403.3
31720.9
32811.8
33632.1
34139.3
34292.2
34051.7
33380.8
32244.1
30608
28440.6
25711.3
22391.6
18455.5
13881.1
8652.8
2764.79
-3775.11
-10940.5
-18681.2
-26918.9
-35543.4
-44411.4
-53348.9
-62156.6
-70621.5
-78531.9
-85695.8
-91953.1
-97137.9
-100800
17590.6
15753.3
14146.4
13083.3
12538.1
12439.4
12723.5
13340
14247
15408.4
16790.1
18358.4
20078.9
21915.1
23828.5
25778
27720.3
29609.9
31399.8
33041.7
34487
35687.1
36594.3
37162.2
37346.1
37103.1
36392.6
35175.7
33415.4
31076.3
28124.9
24529.2
20260.5
15294.4
9613.47
3210.98
-3904.59
-11704.3
-20133.1
-29104.5
-38497
-48152.4
-57878
-67452.9
-76640.2
-85203.1
-92925.1
-99623.5
-105114
-108932
18050.4
16226.5
14646.5
13623.7
13132.3
13100.9
13465.8
14176.2
15189.9
16470.1
17981.8
19690.1
21559.1
23550.5
25623.5
27734.7
29837.9
31884.6
33824.4
35605.7
37176.2
38483.7
39476.7
40105.2
40320.7
40076.9
39329.6
38036.4
36157
33652.7
30486.6
26623.9
22032.7
16686.3
10565.3
3662.25
-4013.97
-12432
-21531.8
-31219.2
-41361.6
-51786
-62281.6
-72606.5
-82500
-91700.9
-99968.8
-107099
-112887
-116858
18480.4
16669.4
15115.1
14131
13691.3
13724.4
14166.7
14966.9
16082.6
17476.3
19112.2
20954.2
22965
25104.5
27330.1
29595.7
31852.7
34049.6
36133
38047.8
39738.5
41149.3
42225.2
42912.6
43159.6
42916.5
42135.5
40771.1
38779.6
36119.2
32749.8
28633.5
23735.9
18027.5
11487.3
4106.88
-4104.39
-13112.8
-22853.9
-33225.9
-44085.6
-55245.9
-66478.6
-77521.4
-88091.3
-97903.5
-106694
-114237
-120312
-124430
18874.9
17075.9
15545.7
14597.8
14206.3
14299.7
14814.1
15698.2
16909.1
18408.6
20160.2
22126.9
24269.8
26547.4
28915.1
31324.8
33725.2
36062.4
38279.8
40319.6
42122.8
43630.5
44784.5
45527.8
45805.2
45563.8
44752.6
43323.1
41228.5
38423.9
34866.3
30514.9
25332.6
19287.7
12357.5
4532.52
-4177.37
-13736.4
-24075.7
-35086.7
-46616.1
-58463.9
-70385.3
-82099.2
-93301.4
-103685
-112965
-120894
-127237
-131492
19227.6
17439.5
15931.2
15016.1
14668.4
14816.4
15396.2
16356.2
17653.2
19248.6
21105
23184.5
25447.1
27849.8
30346.2
32886.3
35416.8
37881
40220.1
42373.3
44278.8
45874.9
47100.1
47894.7
48200.4
47961.5
47124
45636.5
43449.5
40515.4
36788.3
32224.9
26785.7
20436.8
13153.9
4926.63
-4234.72
-14292.5
-25174.1
-36764.5
-48901.4
-61372.8
-73919.4
-86242.4
-98018.7
-108921
-118645
-126926
-133512
-137891
19532.6
17754.1
16264.9
15378.4
15068.9
15264.6
15901.5
16927.8
18300.1
19979.1
21926.9
24104.8
26471.8
28983.7
31592.5
34246.5
36890.6
39465.9
41911.4
44163.8
46159
47832.5
49120.5
49960.3
50291.4
50055.2
49195.4
47658.1
45391.2
42344.6
38470.3
33722.6
28059.6
21445.8
13855.3
5277.05
-4278.42
-14771.9
-26127.2
-38224
-50892.1
-63908.9
-77002.3
-89858.4
-102137
-113494
-123606
-132194
-138993
-143481
19784.2
18013.6
16540.3
15677.7
15399.9
15635.3
16319.7
17401.1
18835.8
20584.2
22608
24867.8
27321.5
29924.1
32626.2
35375
38113.5
40781.2
43315.2
45650.3
47720.2
49458.3
50798.7
51676.5
52029.1
51795.6
50917.8
49339.5
47006.7
43867.3
39871.1
34970.5
29122
22288.3
14442.4
5572.57
-4310.46
-15166.1
-26915.4
-39433.5
-52543.6
-66014.5
-79563
-92862.8
-105560
-117295
-127731
-136575
-143551
-148130
19977.6
18213.2
16752.1
15907.9
15654.6
15920.6
16641.7
17765.6
19248.5
21050.7