/*--------------------------------*- C++ -*----------------------------------*\
| =========                 |                                                 |
| \\      /  F ield         | OpenFOAM: The Open Source CFD Toolbox           |
|  \\    /   O peration     | Version:  5.x                                   |
|   \\  /    A nd           | Web:      www.OpenFOAM.org                      |
|    \\/     M anipulation  |                                                 |
\*---------------------------------------------------------------------------*/
FoamFile
{
    version     2.0;
    format      ascii;
    class       volScalarField;
    location    "0.3";
    object      gradTz;
}
// * * * * * * * * * * * * * * * * * * * * * * * * * * * * * * * * * * * * * //

dimensions      [0 -1 0 1 0 0 0];

internalField   nonuniform List<scalar> 
25000
(
-6334.72
-6852.85
-7003.72
-7057.76
-7080.88
-7092.18
-7098.26
-7101.77
-7103.9
-7105.25
-7106.16
-7106.8
-7107.3
-7107.73
-7108.13
-7108.54
-7108.98
-7109.48
-7110.03
-7110.67
-7111.39
-7112.2
-7113.1
-7114.11
-7115.21
-7116.41
-7117.7
-7119.07
-7120.5
-7121.99
-7123.5
-7125
-7126.47
-7127.86
-7129.12
-7130.19
-7131.01
-7131.5
-7131.56
-7131.08
-7129.9
-7127.8
-7124.43
-7119.2
-7110.89
-7096.91
-7070.7
-7013.22
-6858.66
-6336.68
-6852.85
-7846.69
-8194.24
-8333.58
-8397.02
-8429.08
-8446.64
-8456.86
-8463.11
-8467.1
-8469.78
-8471.69
-8473.18
-8474.46
-8475.67
-8476.9
-8478.24
-8479.73
-8481.42
-8483.34
-8485.52
-8487.97
-8490.71
-8493.75
-8497.09
-8500.72
-8504.62
-8508.77
-8513.11
-8517.6
-8522.17
-8526.73
-8531.17
-8535.38
-8539.19
-8542.45
-8544.93
-8546.42
-8546.63
-8545.21
-8541.7
-8535.46
-8525.48
-8510.01
-8485.73
-8445.55
-8372.76
-8223.01
-7864.28
-6858.77
-7003.72
-8194.23
-8648.31
-8843.62
-8937.14
-8986.04
-9013.42
-9029.6
-9039.59
-9046.03
-9050.39
-9053.53
-9055.99
-9058.12
-9060.14
-9062.23
-9064.49
-9067.01
-9069.87
-9073.13
-9076.81
-9080.97
-9085.62
-9090.78
-9096.44
-9102.59
-9109.21
-9116.23
-9123.59
-9131.21
-9138.96
-9146.69
-9154.23
-9161.36
-9167.84
-9173.37
-9177.61
-9180.18
-9180.6
-9178.3
-9172.55
-9162.3
-9145.97
-9120.9
-9082.12
-9019.46
-8910.07
-8697.12
-8224.07
-7013.75
-7057.75
-8333.56
-8843.6
-9073.24
-9187.51
-9249.05
-9284.28
-9305.43
-9318.66
-9327.28
-9333.18
-9337.47
-9340.88
-9343.86
-9346.72
-9349.68
-9352.91
-9356.53
-9360.63
-9365.3
-9370.59
-9376.56
-9383.24
-9390.64
-9398.76
-9407.59
-9417.07
-9427.15
-9437.72
-9448.64
-9459.76
-9470.86
-9481.69
-9491.93
-9501.25
-9509.22
-9515.37
-9519.13
-9519.87
-9516.8
-9508.9
-9494.82
-9472.51
-9438.6
-9387
-9305.71
-9168.65
-8913.69
-8376.41
-7072.17
-7080.86
-8396.97
-8937.08
-9187.46
-9315.53
-9386.16
-9427.36
-9452.5
-9468.42
-9478.92
-9486.18
-9491.56
-9495.88
-9499.71
-9503.44
-9507.33
-9511.59
-9516.38
-9521.82
-9528.01
-9535.03
-9542.95
-9551.81
-9561.63
-9572.4
-9584.11
-9596.69
-9610.06
-9624.08
-9638.57
-9653.32
-9668.05
-9682.42
-9696.04
-9708.43
-9719.06
-9727.3
-9732.43
-9733.62
-9729.89
-9719.98
-9702.24
-9674.27
-9632.22
-9569.3
-9472.46
-9314.13
-9030.13
-8453.85
-7100
-7092.15
-8428.98
-8985.9
-9248.9
-9386.05
-9463.04
-9508.67
-9536.88
-9554.99
-9567.07
-9575.55
-9581.92
-9587.13
-9591.83
-9596.46
-9601.34
-9606.71
-9612.77
-9619.66
-9627.51
-9636.42
-9646.47
-9657.7
-9670.15
-9683.81
-9698.65
-9714.6
-9731.55
-9749.32
-9767.7
-9786.4
-9805.09
-9823.32
-9840.62
-9856.37
-9869.92
-9880.49
-9887.18
-9888.99
-9884.72
-9872.91
-9851.66
-9818.29
-9768.61
-9695.44
-9585.19
-9409.67
-9104
-8501.18
-7116.44
-7098.21
-8446.47
-9013.17
-9283.98
-9427.07
-9508.47
-9557.31
-9587.88
-9607.72
-9621.13
-9630.68
-9637.97
-9644.06
-9649.64
-9655.22
-9661.16
-9667.74
-9675.18
-9683.66
-9693.33
-9704.3
-9716.67
-9730.49
-9745.82
-9762.64
-9780.91
-9800.54
-9821.4
-9843.27
-9865.9
-9888.93
-9911.94
-9934.42
-9955.74
-9975.2
-9991.98
-10005.1
-10013.6
-10016.2
-10011.5
-9997.89
-9973.22
-9934.6
-9877.61
-9794.85
-9672.48
-9482.1
-9158.71
-8535.45
-7128.14
-7101.68
-8456.59
-9029.18
-9304.9
-9451.92
-9536.35
-9587.52
-9619.85
-9641.07
-9655.59
-9666.09
-9674.26
-9681.21
-9687.71
-9694.29
-9701.37
-9709.26
-9718.21
-9728.42
-9740.08
-9753.3
-9768.21
-9784.89
-9803.36
-9823.63
-9845.65
-9869.31
-9894.44
-9920.81
-9948.08
-9975.84
-10003.6
-10030.7
-10056.5
-10080
-10100.3
-10116.4
-10126.9
-10130.4
-10125.4
-10110
-10082
-10038.1
-9973.95
-9881.88
-9748.02
-9543.96
-9204.8
-8563.96
-7137.8
-7103.76
-8462.69
-9038.93
-9317.8
-9467.42
-9553.95
-9606.8
-9640.47
-9662.79
-9678.26
-9689.61
-9698.62
-9706.43
-9713.88
-9721.53
-9729.84
-9739.14
-9749.73
-9761.84
-9775.66
-9791.34
-9809.03
-9828.8
-9850.7
-9874.73
-9900.84
-9928.89
-9958.68
-9989.94
-10022.3
-10055.2
-10088.1
-10120.3
-10150.9
-10178.9
-10203.1
-10222.3
-10235.1
-10239.8
-10234.6
-10217.5
-10186
-10136.9
-10065.4
-9964.06
-9818.89
-9601.56
-9247.4
-8590.14
-7146.64
-7105.04
-8466.48
-9045.03
-9325.94
-9477.32
-9565.32
-9619.39
-9654.09
-9677.3
-9693.58
-9705.73
-9715.54
-9724.24
-9732.67
-9741.46
-9751.08
-9761.92
-9774.28
-9788.44
-9804.6
-9822.95
-9843.64
-9866.76
-9892.38
-9920.49
-9951.01
-9983.81
-10018.7
-10055.2
-10093
-10131.5
-10170.1
-10207.7
-10243.6
-10276.4
-10304.9
-10327.6
-10342.9
-10348.8
-10343.6
-10324.7
-10289.7
-10235.2
-10156.3
-10045.5
-9888.84
-9658.21
-9289.15
-8615.73
-7155.26
-7105.86
-8468.89
-9048.93
-9331.2
-9483.77
-9572.81
-9627.78
-9663.29
-9687.25
-9704.25
-9717.13
-9727.75
-9737.35
-9746.81
-9756.8
-9767.83
-9780.3
-9794.57
-9810.92
-9829.6
-9850.81
-9874.72
-9901.45
-9931.06
-9963.54
-9998.81
-10036.7
-10077
-10119.2
-10162.9
-10207.4
-10252
-10295.5
-10337
-10375
-10408.1
-10434.6
-10452.6
-10460
-10454.7
-10434.2
-10395.6
-10335.4
-10248.9
-10128.3
-9959.86
-9715.62
-9331.38
-8641.57
-7163.96
-7106.38
-8470.45
-9051.48
-9334.66
-9488.05
-9577.84
-9633.51
-9669.67
-9694.26
-9711.92
-9725.52
-9736.94
-9747.45
-9757.99
-9769.25
-9781.76
-9795.97
-9812.25
-9830.94
-9852.29
-9876.54
-9903.88
-9934.44
-9968.28
-10005.4
-10045.7
-10089
-10135
-10183.3
-10233.3
-10284.1
-10335.1
-10384.9
-10432.4
-10476
-10514
-10544.5
-10565.4
-10574.4
-10569.2
-10546.9
-10504.6
-10438.6
-10344.1
-10213.4
-10032.8
-9774.55
-9374.69
-8668.06
-7172.87
-7106.73
-8471.48
-9053.17
-9336.97
-9490.96
-9581.31
-9637.52
-9674.22
-9699.38
-9717.65
-9731.95
-9744.17
-9755.63
-9767.28
-9779.85
-9793.91
-9809.94
-9828.35
-9849.48
-9873.64
-9901.08
-9932.01
-9966.58
-10004.9
-10046.8
-10092.4
-10141.4
-10193.5
-10248.1
-10304.6
-10362.2
-10419.8
-10476.2
-10530
-10579.5
-10622.6
-10657.4
-10681.4
-10692.1
-10686.9
-10662.9
-10616.8
-10544.9
-10442.1
-10301
-10107.9
-9835.14
-9419.21
-8695.28
-7182.03
-7106.96
-8472.17
-9054.31
-9338.56
-9492.98
-9583.77
-9640.41
-9677.59
-9703.26
-9722.12
-9737.1
-9750.12
-9762.54
-9775.33
-9789.26
-9804.92
-9822.83
-9843.43
-9867.1
-9894.16
-9924.91
-9959.56
-9998.28
-10041.2
-10088.2
-10139.2
-10194.1
-10252.4
-10313.5
-10376.8
-10441.3
-10505.9
-10569.2
-10629.5
-10685
-10733.5
-10772.6
-10799.9
-10812.4
-10807.3
-10781.5
-10731.5
-10653.5
-10542.4
-10390.6
-10184.6
-9897.09
-9464.73
-8723.11
-7191.39
-7107.12
-8472.65
-9055.12
-9339.68
-9494.43
-9585.57
-9642.59
-9680.18
-9706.33
-9725.76
-9741.4
-9755.23
-9768.62
-9782.56
-9797.87
-9815.16
-9834.99
-9857.82
-9884.07
-9914.09
-9948.2
-9986.64
-10029.6
-10077.1
-10129.3
-10185.9
-10246.8
-10311.4
-10379.2
-10449.4
-10521
-10592.7
-10662.9
-10729.8
-10791.5
-10845.4
-10889.1
-10919.7
-10934.1
-10929.2
-10901.6
-10847.7
-10763.5
-10643.9
-10481.3
-10262.3
-9959.8
-9510.8
-8751.27
-7200.86
-7107.24
-8472.99
-9055.69
-9340.5
-9495.51
-9586.93
-9644.28
-9682.25
-9708.86
-9728.83
-9745.13
-9759.75
-9774.1
-9789.2
-9805.88
-9824.81
-9846.56
-9871.63
-9900.46
-9933.45
-9970.93
-10013.2
-10060.3
-10112.6
-10169.9
-10232.1
-10298.9
-10369.9
-10444.4
-10521.6
-10600.2
-10678.9
-10756.1
-10829.8
-10897.6
-10957.1
-11005.3
-11039.2
-11055.4
-11050.7
-11021.3
-10963.6
-10873.2
-10745.2
-10571.8
-10339.8
-10022.4
-9556.77
-8779.37
-7210.32
-7107.32
-8473.25
-9056.12
-9341.12
-9496.35
-9588.01
-9645.65
-9683.97
-9711
-9731.49
-9748.43
-9763.83
-9779.11
-9795.35
-9813.38
-9833.91
-9857.55
-9884.82
-9916.2
-9952.1
-9992.89
-10038.9
-10090.2
-10147.1
-10209.4
-10277.1
-10349.8
-10427
-10508.1
-10592.1
-10677.7
-10763.4
-10847.4
-10927.7
-11001.6
-11066.4
-11119.1
-11156.3
-11174.4
-11169.9
-11138.8
-11077.2
-10980.9
-10844.5
-10660.5
-10415.9
-10083.8
-9601.87
-8806.94
-7219.59
-7107.38
-8473.44
-9056.45
-9341.61
-9497.01
-9588.89
-9646.8
-9685.44
-9712.87
-9733.84
-9751.39
-9767.53
-9783.71
-9801.04
-9820.37
-9842.45
-9867.9
-9897.29
-9931.12
-9969.83
-10013.8
-10063.4
-10118.7
-10180
-10247.2
-10320.1
-10398.5
-10481.8
-10569.2
-10659.7
-10752
-10844.4
-10935.1
-11021.6
-11101.4
-11171.4
-11228.4
-11268.8
-11288.7
-11284.3
-11251.6
-11186.4
-11084.3
-10940
-10745.8
-10489
-10142.8
-9645.21
-8833.44
-7228.5
-7107.43
-8473.59
-9056.71
-9342
-9497.56
-9589.63
-9647.76
-9686.7
-9714.49
-9735.93
-9754.04
-9770.87
-9787.9
-9806.25
-9826.8
-9850.33
-9877.49
-9908.87
-9944.99
-9986.33
-10033.3
-10086.2
-10145.3
-10210.8
-10282.5
-10360.4
-10444.1
-10533
-10626.3
-10723
-10821.6
-10920.3
-11017.1
-11109.6
-11194.9
-11269.8
-11330.9
-11374.2
-11395.9
-11391.7
-11357.5
-11288.9
-11181.3
-11029.5
-10825.9
-10557.5
-10198.1
-9685.87
-8858.3
-7236.87
-7107.47
-8473.71
-9056.92
-9342.32
-9498.01
-9590.24
-9648.58
-9687.78
-9715.91
-9737.76
-9756.38
-9773.84
-9791.64
-9810.92
-9832.59
-9857.44
-9886.15
-9919.33
-9957.55
-10001.3
-10051
-10107
-10169.5
-10238.7
-10314.6
-10397
-10485.5
-10579.6
-10678.3
-10780.6
-10884.9
-10989.4
-11091.8
-11189.7
-11280.1
-11359.4
-11424.2
-11470.2
-11493.4
-11489.4
-11453.8
-11382.1
-11269.7
-11111
-10898.7
-10619.9
-10248.5
-9722.9
-8880.94
-7244.48
-7107.5
-8473.8
-9057.09
-9342.58
-9498.38
-9590.75
-9649.27
-9688.7
-9717.11
-9739.32
-9758.39
-9776.41
-9794.88
-9814.97
-9837.62
-9863.63
-9893.7
-9928.48
-9968.53
-10014.4
-10066.4
-10125.1
-10190.7
-10263.2
-10342.7
-10429.1
-10521.9
-10620.4
-10723.9
-10831.1
-10940.4
-11049.9
-11157.3
-11260
-11354.7
-11438
-11506
-11554.4
-11579
-11575.2
-11538.4
-11464
-11347.2
-11182.6
-10962.7
-10674.7
-10292.7
-9755.4
-8900.8
-7251.16
-7107.53
-8473.88
-9057.23
-9342.78
-9498.67
-9591.16
-9649.83
-9689.44
-9718.09
-9740.6
-9760.05
-9778.53
-9797.57
-9818.34
-9841.8
-9868.78
-9899.99
-9936.09
-9977.67
-10025.3
-10079.3
-10140.3
-10208.3
-10283.6
-10366.2
-10455.8
-10552.2
-10654.5
-10761.9
-10873.2
-10986.7
-11100.4
-11212
-11318.6
-11417
-11503.6
-11574.2
-11624.7
-11650.4
-11646.7
-11608.9
-11532.2
-11411.9
-11242.3
-11016
-10720.4
-10329.6
-9782.52
-8917.38
-7256.74
-7107.55
-8473.94
-9057.33
-9342.93
-9498.89
-9591.47
-9650.25
-9690.01
-9718.85
-9741.59
-9761.33
-9780.16
-9799.64
-9820.94
-9845.03
-9872.76
-9904.85
-9941.98
-9984.75
-10033.7
-10089.3
-10152
-10222
-10299.4
-10384.3
-10476.5
-10575.6
-10680.9
-10791.4
-10905.8
-11022.5
-11139.5
-11254.3
-11364
-11465.3
-11554.3
-11627.1
-11679.1
-11705.8
-11702.2
-11663.6
-11585.2
-11462
-11288.6
-11057.4
-10755.9
-10358.2
-9803.54
-8930.23
-7261.06
-7107.56
-8473.97
-9057.39
-9343.04
-9499.04
-9591.68
-9650.54
-9690.4
-9719.36
-9742.26
-9762.19
-9781.28
-9801.05
-9822.71
-9847.23
-9875.47
-9908.16
-9945.99
-9989.58
-10039.5
-10096.1
-10160
-10231.3
-10310.2
-10396.7
-10490.7
-10591.6
-10698.9
-10811.4
-10928.1
-11047
-11166.2
-11283.2
-11395
-11498.2
-11589
-11663.2
-11716.3
-11743.5
-11740
-11700.9
-11621.3
-11496.2
-11320.2
-11085.6
-10780.1
-10377.8
-9817.89
-8939
-7264.02
-7107.56
-8473.99
-9057.43
-9343.09
-9499.12
-9591.78
-9650.68
-9690.59
-9719.62
-9742.6
-9762.63
-9781.84
-9801.76
-9823.6
-9848.35
-9876.84
-9909.84
-9948.03
-9992.02
-10042.4
-10099.6
-10164
-10236
-10315.7
-10403
-10497.8
-10599.7
-10708
-10821.6
-10939.3
-11059.4
-11179.8
-11297.8
-11410.7
-11514.9
-11606.6
-11681.5
-11735.1
-11762.7
-11759.2
-11719.8
-11639.6
-11513.6
-11336.2
-11099.9
-10792.3
-10387.7
-9825.16
-8943.45
-7265.51
-7107.56
-8473.99
-9057.43
-9343.09
-9499.12
-9591.78
-9650.68
-9690.59
-9719.62
-9742.6
-9762.63
-9781.84
-9801.76
-9823.6
-9848.34
-9876.84
-9909.84
-9948.03
-9992.02
-10042.4
-10099.6
-10164
-10236
-10315.7
-10403
-10497.8
-10599.7
-10708
-10821.6
-10939.3
-11059.4
-11179.7
-11297.8
-11410.7
-11514.9
-11606.6
-11681.5
-11735.1
-11762.7
-11759.2
-11719.8
-11639.6
-11513.6
-11336.2
-11099.9
-10792.3
-10387.7
-9825.16
-8943.45
-7265.51
-7107.56
-8473.97
-9057.39
-9343.04
-9499.04
-9591.68
-9650.54
-9690.39
-9719.36
-9742.26
-9762.19
-9781.27
-9801.04
-9822.7
-9847.23
-9875.46
-9908.16
-9945.99
-9989.57
-10039.5
-10096.1
-10160
-10231.3
-10310.2
-10396.7
-10490.7
-10591.6
-10698.8
-10811.4
-10928
-11047
-11166.2
-11283.2
-11395
-11498.2
-11589
-11663.2
-11716.3
-11743.5
-11740
-11700.9
-11621.3
-11496.2
-11320.1
-11085.6
-10780.1
-10377.8
-9817.89
-8939
-7264.02
-7107.55
-8473.94
-9057.33
-9342.93
-9498.89
-9591.47
-9650.25
-9690.01
-9718.85
-9741.59
-9761.32
-9780.16
-9799.63
-9820.93
-9845.02
-9872.75
-9904.84
-9941.97
-9984.74
-10033.7
-10089.3
-10152
-10221.9
-10299.4
-10384.3
-10476.5
-10575.6
-10680.8
-10791.3
-10905.8
-11022.5
-11139.5
-11254.3
-11364
-11465.2
-11554.3
-11627.1
-11679.1
-11705.7
-11702.1
-11663.5
-11585.1
-11462
-11288.6
-11057.4
-10755.9
-10358.2
-9803.54
-8930.23
-7261.07
-7107.53
-8473.88
-9057.23
-9342.78
-9498.67
-9591.16
-9649.83
-9689.44
-9718.09
-9740.6
-9760.04
-9778.52
-9797.56
-9818.33
-9841.79
-9868.76
-9899.97
-9936.07
-9977.65
-10025.2
-10079.3
-10140.2
-10208.3
-10283.6
-10366.1
-10455.8
-10552.1
-10654.4
-10761.9
-10873.1
-10986.6
-11100.3
-11211.9
-11318.5
-11416.9
-11503.5
-11574.2
-11624.6
-11650.4
-11646.7
-11608.9
-11532.2
-11411.8
-11242.3
-11016
-10720.4
-10329.6
-9782.51
-8917.38
-7256.74
-7107.5
-8473.8
-9057.09
-9342.58
-9498.38
-9590.75
-9649.27
-9688.69
-9717.11
-9739.31
-9758.38
-9776.4
-9794.87
-9814.96
-9837.61
-9863.61
-9893.68
-9928.46
-9968.51
-10014.3
-10066.4
-10125.1
-10190.6
-10263.2
-10342.7
-10429
-10521.8
-10620.4
-10723.9
-10831
-10940.3
-11049.8
-11157.3
-11259.9
-11354.7
-11437.9
-11505.9
-11554.4
-11579
-11575.1
-11538.3
-11463.9
-11347.2
-11182.6
-10962.7
-10674.7
-10292.7
-9755.39
-8900.8
-7251.17
-7107.47
-8473.71
-9056.92
-9342.32
-9498.01
-9590.24
-9648.58
-9687.78
-9715.9
-9737.75
-9756.37
-9773.83
-9791.63
-9810.9
-9832.57
-9857.42
-9886.12
-9919.31
-9957.52
-10001.3
-10050.9
-10106.9
-10169.5
-10238.7
-10314.6
-10397
-10485.5
-10579.5
-10678.3
-10780.5
-10884.8
-10989.3
-11091.8
-11189.7
-11280
-11359.4
-11424.1
-11470.2
-11493.4
-11489.4
-11453.8
-11382.1
-11269.7
-11111
-10898.7
-10619.9
-10248.5
-9722.9
-8880.94
-7244.48
-7107.43
-8473.59
-9056.71
-9342
-9497.56
-9589.63
-9647.76
-9686.69
-9714.49
-9735.92
-9754.03
-9770.86
-9787.89
-9806.23
-9826.78
-9850.31
-9877.46
-9908.84
-9944.96
-9986.29
-10033.3
-10086.2
-10145.3
-10210.7
-10282.5
-10360.3
-10444
-10533
-10626.3
-10722.9
-10821.5
-10920.2
-11017.1
-11109.5
-11194.8
-11269.8
-11330.8
-11374.1
-11395.8
-11391.6
-11357.4
-11288.8
-11181.3
-11029.5
-10825.8
-10557.5
-10198.1
-9685.87
-8858.3
-7236.87
-7107.38
-8473.44
-9056.45
-9341.61
-9497.01
-9588.89
-9646.79
-9685.43
-9712.86
-9733.84
-9751.38
-9767.52
-9783.7
-9801.02
-9820.35
-9842.43
-9867.88
-9897.26
-9931.08
-9969.79
-10013.8
-10063.3
-10118.7
-10179.9
-10247.1
-10320.1
-10398.4
-10481.7
-10569.1
-10659.6
-10751.9
-10844.3
-10935
-11021.5
-11101.3
-11171.3
-11228.3
-11268.7
-11288.6
-11284.3
-11251.6
-11186.4
-11084.3
-10939.9
-10745.8
-10488.9
-10142.7
-9645.21
-8833.44
-7228.51
-7107.32
-8473.25
-9056.12
-9341.12
-9496.35
-9588.01
-9645.65
-9683.97
-9711
-9731.48
-9748.42
-9763.82
-9779.1
-9795.33
-9813.36
-9833.89
-9857.52
-9884.79
-9916.16
-9952.06
-9992.85
-10038.8
-10090.2
-10147
-10209.3
-10277
-10349.7
-10427
-10508
-10592
-10677.6
-10763.3
-10847.3
-10927.6
-11001.5
-11066.3
-11119
-11156.2
-11174.3
-11169.8
-11138.7
-11077.2
-10980.9
-10844.5
-10660.5
-10415.9
-10083.7
-9601.87
-8806.95
-7219.59
-7107.24
-8472.99
-9055.69
-9340.5
-9495.51
-9586.93
-9644.28
-9682.25
-9708.85
-9728.82
-9745.12
-9759.74
-9774.08
-9789.18
-9805.86
-9824.78
-9846.53
-9871.6
-9900.43
-9933.41
-9970.88
-10013.1
-10060.3
-10112.5
-10169.8
-10232
-10298.8
-10369.8
-10444.3
-10521.5
-10600.1
-10678.9
-10756
-10829.7
-10897.5
-10957
-11005.2
-11039.1
-11055.4
-11050.6
-11021.3
-10963.5
-10873.2
-10745.1
-10571.8
-10339.8
-10022.4
-9556.77
-8779.38
-7210.32
-7107.12
-8472.65
-9055.12
-9339.69
-9494.43
-9585.56
-9642.59
-9680.17
-9706.33
-9725.75
-9741.4
-9755.22
-9768.6
-9782.55
-9797.85
-9815.14
-9834.96
-9857.79
-9884.04
-9914.06
-9948.16
-9986.59
-10029.5
-10077.1
-10129.2
-10185.9
-10246.7
-10311.3
-10379.1
-10449.3
-10520.9
-10592.6
-10662.8
-10729.8
-10791.4
-10845.4
-10889
-10919.6
-10934
-10929.1
-10901.5
-10847.6
-10763.5
-10643.9
-10481.3
-10262.3
-9959.79
-9510.8
-8751.28
-7200.87
-7106.96
-8472.17
-9054.32
-9338.56
-9492.98
-9583.77
-9640.41
-9677.58
-9703.26
-9722.12
-9737.09
-9750.11
-9762.53
-9775.32
-9789.24
-9804.9
-9822.81
-9843.4
-9867.07
-9894.13
-9924.87
-9959.51
-9998.23
-10041.1
-10088.1
-10139.2
-10194
-10252.3
-10313.4
-10376.7
-10441.3
-10505.8
-10569.1
-10629.4
-10684.9
-10733.4
-10772.5
-10799.8
-10812.3
-10807.3
-10781.4
-10731.5
-10653.5
-10542.4
-10390.6
-10184.6
-9897.09
-9464.73
-8723.11
-7191.39
-7106.73
-8471.48
-9053.17
-9336.97
-9490.96
-9581.31
-9637.52
-9674.22
-9699.37
-9717.65
-9731.94
-9744.16
-9755.62
-9767.26
-9779.83
-9793.89
-9809.92
-9828.32
-9849.45
-9873.6
-9901.04
-9931.97
-9966.54
-10004.8
-10046.8
-10092.4
-10141.4
-10193.4
-10248
-10304.5
-10362.1
-10419.7
-10476.2
-10529.9
-10579.4
-10622.5
-10657.3
-10681.3
-10692
-10686.9
-10662.8
-10616.7
-10544.8
-10442.1
-10301
-10107.9
-9835.13
-9419.21
-8695.29
-7182.03
-7106.38
-8470.45
-9051.48
-9334.66
-9488.05
-9577.85
-9633.51
-9669.67
-9694.26
-9711.92
-9725.51
-9736.93
-9747.44
-9757.98
-9769.23
-9781.74
-9795.95
-9812.23
-9830.91
-9852.26
-9876.51
-9903.85
-9934.4
-9968.23
-10005.3
-10045.7
-10089
-10135
-10183.2
-10233.2
-10284.1
-10335
-10384.9
-10432.3
-10475.9
-10513.9
-10544.4
-10565.3
-10574.4
-10569.1
-10546.8
-10504.5
-10438.6
-10344.1
-10213.4
-10032.8
-9774.54
-9374.7
-8668.07
-7172.87
-7105.86
-8468.89
-9048.93
-9331.2
-9483.77
-9572.81
-9627.78
-9663.29
-9687.25
-9704.24
-9717.13
-9727.74
-9737.34
-9746.8
-9756.79
-9767.81
-9780.29
-9794.55
-9810.9
-9829.57
-9850.78
-9874.69
-9901.42
-9931.02
-9963.49
-9998.76
-10036.7
-10076.9
-10119.1
-10162.8
-10207.4
-10251.9
-10295.5
-10336.9
-10375
-10408.1
-10434.6
-10452.5
-10460
-10454.7
-10434.1
-10395.6
-10335.4
-10248.9
-10128.3
-9959.86
-9715.62
-9331.38
-8641.58
-7163.96
-7105.04
-8466.48
-9045.03
-9325.95
-9477.32
-9565.32
-9619.39
-9654.09
-9677.3
-9693.58
-9705.72
-9715.54
-9724.23
-9732.66
-9741.45
-9751.07
-9761.9
-9774.27
-9788.42
-9804.57
-9822.92
-9843.61
-9866.73
-9892.35
-9920.45
-9950.97
-9983.77
-10018.6
-10055.2
-10093
-10131.5
-10170
-10207.7
-10243.5
-10276.3
-10304.8
-10327.5
-10342.8
-10348.8
-10343.5
-10324.7
-10289.7
-10235.2
-10156.3
-10045.5
-9888.84
-9658.21
-9289.15
-8615.73
-7155.26
-7103.76
-8462.69
-9038.93
-9317.8
-9467.42
-9553.95
-9606.8
-9640.48
-9662.79
-9678.26
-9689.61
-9698.61
-9706.43
-9713.87
-9721.52
-9729.83
-9739.13
-9749.72
-9761.82
-9775.64
-9791.32
-9809
-9828.77
-9850.67
-9874.7
-9900.8
-9928.85
-9958.64
-9989.89
-10022.2
-10055.2
-10088.1
-10120.2
-10150.8
-10178.8
-10203.1
-10222.3
-10235
-10239.7
-10234.6
-10217.5
-10186
-10136.8
-10065.4
-9964.06
-9818.89
-9601.56
-9247.41
-8590.15
-7146.64
-7101.68
-8456.59
-9029.18
-9304.91
-9451.92
-9536.35
-9587.52
-9619.86
-9641.07
-9655.59
-9666.09
-9674.26
-9681.21
-9687.7
-9694.29
-9701.36
-9709.25
-9718.2
-9728.41
-9740.06
-9753.29
-9768.19
-9784.86
-9803.33
-9823.6
-9845.62
-9869.28
-9894.41
-9920.77
-9948.04
-9975.81
-10003.6
-10030.7
-10056.4
-10079.9
-10100.3
-10116.3
-10126.8
-10130.4
-10125.4
-10110
-10082
-10038.1
-9973.94
-9881.87
-9748.02
-9543.96
-9204.8
-8563.96
-7137.8
-7098.21
-8446.48
-9013.17
-9283.98
-9427.08
-9508.47
-9557.32
-9587.88
-9607.72
-9621.13
-9630.68
-9637.97
-9644.06
-9649.64
-9655.22
-9661.16
-9667.73
-9675.17
-9683.65
-9693.32
-9704.28
-9716.65
-9730.48
-9745.8
-9762.62
-9780.89
-9800.52
-9821.37
-9843.25
-9865.87
-9888.9
-9911.91
-9934.39
-9955.71
-9975.17
-9991.95
-10005.1
-10013.6
-10016.2
-10011.5
-9997.87
-9973.2
-9934.58
-9877.61
-9794.84
-9672.48
-9482.1
-9158.71
-8535.45
-7128.14
-7092.15
-8428.99
-8985.9
-9248.91
-9386.05
-9463.04
-9508.67
-9536.89
-9554.99
-9567.07
-9575.55
-9581.92
-9587.13
-9591.83
-9596.46
-9601.34
-9606.71
-9612.77
-9619.66
-9627.51
-9636.41
-9646.46
-9657.69
-9670.13
-9683.79
-9698.63
-9714.58
-9731.53
-9749.3
-9767.68
-9786.38
-9805.06
-9823.3
-9840.59
-9856.35
-9869.9
-9880.46
-9887.16
-9888.97
-9884.69
-9872.89
-9851.64
-9818.28
-9768.61
-9695.44
-9585.19
-9409.67
-9104
-8501.18
-7116.44
-7080.86
-8396.97
-8937.08
-9187.46
-9315.54
-9386.16
-9427.37
-9452.5
-9468.42
-9478.92
-9486.19
-9491.56
-9495.88
-9499.71
-9503.44
-9507.33
-9511.59
-9516.38
-9521.81
-9528.01
-9535.03
-9542.95
-9551.8
-9561.62
-9572.39
-9584.1
-9596.68
-9610.04
-9624.06
-9638.56
-9653.31
-9668.03
-9682.4
-9696.02
-9708.41
-9719.03
-9727.27
-9732.41
-9733.6
-9729.87
-9719.96
-9702.23
-9674.26
-9632.21
-9569.29
-9472.45
-9314.13
-9030.13
-8453.85
-7100
-7057.75
-8333.56
-8843.6
-9073.24
-9187.51
-9249.05
-9284.28
-9305.44
-9318.67
-9327.29
-9333.18
-9337.47
-9340.88
-9343.86
-9346.72
-9349.68
-9352.91
-9356.52
-9360.63
-9365.29
-9370.59
-9376.55
-9383.23
-9390.63
-9398.75
-9407.57
-9417.06
-9427.14
-9437.7
-9448.63
-9459.75
-9470.84
-9481.67
-9491.91
-9501.23
-9509.2
-9515.35
-9519.12
-9519.86
-9516.78
-9508.89
-9494.81
-9472.5
-9438.59
-9387
-9305.71
-9168.65
-8913.69
-8376.41
-7072.17
-7003.72
-8194.23
-8648.31
-8843.62
-8937.14
-8986.04
-9013.42
-9029.6
-9039.59
-9046.03
-9050.39
-9053.53
-9055.99
-9058.12
-9060.14
-9062.22
-9064.48
-9067
-9069.86
-9073.12
-9076.8
-9080.96
-9085.61
-9090.77
-9096.43
-9102.58
-9109.19
-9116.21
-9123.58
-9131.19
-9138.94
-9146.67
-9154.21
-9161.34
-9167.82
-9173.35
-9177.59
-9180.16
-9180.58
-9178.29
-9172.53
-9162.28
-9145.96
-9120.9
-9082.11
-9019.46
-8910.07
-8697.12
-8224.07
-7013.76
-6852.85
-7846.69
-8194.24
-8333.58
-8397.02
-8429.08
-8446.64
-8456.86
-8463.1
-8467.1
-8469.78
-8471.69
-8473.18
-8474.46
-8475.67
-8476.9
-8478.24
-8479.73
-8481.42
-8483.33
-8485.51
-8487.96
-8490.7
-8493.75
-8497.08
-8500.71
-8504.61
-8508.75
-8513.1
-8517.59
-8522.16
-8526.72
-8531.16
-8535.37
-8539.18
-8542.43
-8544.92
-8546.41
-8546.62
-8545.2
-8541.69
-8535.45
-8525.47
-8510.01
-8485.72
-8445.55
-8372.76
-8223.01
-7864.28
-6858.77
-6334.72
-6852.85
-7003.72
-7057.76
-7080.87
-7092.18
-7098.26
-7101.77
-7103.9
-7105.25
-7106.15
-7106.8
-7107.3
-7107.72
-7108.12
-7108.53
-7108.98
-7109.47
-7110.03
-7110.66
-7111.38
-7112.19
-7113.1
-7114.1
-7115.2
-7116.4
-7117.69
-7119.06
-7120.5
-7121.98
-7123.49
-7125
-7126.46
-7127.85
-7129.11
-7130.19
-7131
-7131.49
-7131.55
-7131.07
-7129.89
-7127.8
-7124.43
-7119.2
-7110.89
-7096.91
-7070.7
-7013.22
-6858.66
-6336.68
-1402.82
-2233.06
-2528.75
-2653.34
-2713.61
-2746.11
-2765.27
-2777.48
-2785.87
-2792.13
-2797.2
-2801.65
-2805.85
-2810.02
-2814.34
-2818.92
-2823.81
-2829.09
-2834.77
-2840.87
-2847.4
-2854.35
-2861.68
-2869.36
-2877.35
-2885.58
-2893.97
-2902.43
-2910.86
-2919.12
-2927.08
-2934.57
-2941.42
-2947.4
-2952.31
-2955.87
-2957.81
-2957.82
-2955.53
-2950.53
-2942.33
-2930.23
-2913.24
-2889.72
-2856.63
-2807.77
-2729
-2584.13
-2266.84
-1414.18
-2233.05
-3948.68
-4666.28
-4997.36
-5165.47
-5258.55
-5314.23
-5350.05
-5374.85
-5393.44
-5408.56
-5421.89
-5434.49
-5447.06
-5460.08
-5473.86
-5488.64
-5504.55
-5521.71
-5540.14
-5559.86
-5580.84
-5602.99
-5626.2
-5650.34
-5675.2
-5700.57
-5726.15
-5751.62
-5776.61
-5800.68
-5823.35
-5844.07
-5862.2
-5877.05
-5887.87
-5893.8
-5893.89
-5887.07
-5872.12
-5847.52
-5811.29
-5760.53
-5690.52
-5592.73
-5450.19
-5226.14
-4833.75
-4050.82
-2267.38
-2528.71
-4666.2
-5635.66
-6111.18
-6363.29
-6507.08
-6594.88
-6652.22
-6692.4
-6722.81
-6747.76
-6769.91
-6790.96
-6812.05
-6833.93
-6857.14
-6882.04
-6908.89
-6937.84
-6968.97
-7002.27
-7037.69
-7075.12
-7114.36
-7155.16
-7197.2
-7240.09
-7283.36
-7326.46
-7368.76
-7409.53
-7447.94
-7483.04
-7513.81
-7539.06
-7557.51
-7567.72
-7568.11
-7556.9
-7532.06
-7491.12
-7430.9
-7346.84
-7231.67
-7072.62
-6845.16
-6498.38
-5919.1
-4839.08
-2586.81
-2653.22
-4997.07
-6110.88
-6680.86
-6993.84
-7177.35
-7291.88
-7368
-7422.16
-7463.69
-7498.16
-7529.06
-7558.65
-7588.43
-7619.46
-7652.44
-7687.89
-7726.14
-7767.41
-7811.81
-7859.33
-7909.9
-7963.34
-8019.39
-8077.69
-8137.78
-8199.11
-8261.01
-8322.69
-8383.26
-8441.66
-8496.71
-8547.09
-8591.29
-8627.66
-8654.34
-8669.32
-8670.36
-8654.96
-8620.32
-8563.07
-8478.98
-8362.12
-8203.3
-7986.85
-7683.6
-7235.14
-6516.65
-5244.57
-2736.4
-2713.35
-5164.79
-6362.39
-6993.11
-7348.86
-7562.42
-7698.47
-7790.56
-7857.18
-7909.06
-7952.73
-7992.34
-8030.59
-8069.35
-8109.9
-8153.13
-8199.67
-8249.96
-8304.27
-8362.72
-8425.33
-8491.98
-8562.45
-8636.38
-8713.31
-8792.64
-8873.64
-8955.43
-9036.98
-9117.09
-9194.4
-9267.34
-9334.16
-9392.88
-9441.33
-9477.08
-9497.48
-9499.62
-9480.3
-9435.93
-9362.34
-9254.35
-9104.96
-8903.65
-8632.93
-8261.09
-7726.21
-6899.09
-5492.15
-2823.38
-2745.64
-5257.22
-6505.16
-7175.31
-7560.94
-7796.98
-7950.13
-8055.66
-8133.34
-8194.85
-8247.42
-8295.72
-8342.84
-8390.93
-8441.46
-8495.52
-8553.85
-8616.96
-8685.17
-8758.65
-8837.39
-8921.26
-9009.98
-9103.1
-9200.05
-9300.07
-9402.25
-9505.48
-9608.47
-9709.72
-9807.5
-9899.85
-9984.56
-10059.1
-10120.9
-10166.7
-10193.3
-10197.1
-10174.1
-10120.1
-10030
-9897.87
-9715.87
-9472.56
-9149.41
-8713.51
-8101.62
-7183.35
-5670.91
-2884.68
-2764.47
-5311.93
-6591.4
-7287.76
-7694.52
-7947.44
-8114.24
-8231.12
-8318.66
-8389.19
-8450.45
-8507.49
-8563.74
-8621.57
-8682.65
-8748.21
-8819.1
-8895.91
-8979.03
-9068.63
-9164.72
-9267.13
-9375.5
-9489.32
-9607.88
-9730.26
-9855.34
-9981.8
-10108
-10232.2
-10352.3
-10465.8
-10570.1
-10662
-10738.4
-10795.5
-10829.2
-10835.3
-10809
-10745.3
-10638.4
-10481.6
-10266.5
-9980.92
-9605.87
-9108
-8423.85
-7423.23
-5819.36
-2935.02
-2776.22
-5346.38
-6646.5
-7360.85
-7782.9
-8048.74
-8226.6
-8353.22
-8449.69
-8528.77
-8598.59
-8664.51
-8730.19
-8798.23
-8870.47
-8948.25
-9032.56
-9124.05
-9223.15
-9330.08
-9444.82
-9567.18
-9696.75
-9832.9
-9974.79
-10121.3
-10271.2
-10422.9
-10574.3
-10723.5
-10867.8
-11004.3
-11130
-11241
-11333.6
-11403.1
-11445
-11454
-11424.8
-11351.3
-11227.2
-11045
-10795.8
-10467
-10039.5
-9479.77
-8724.82
-7645.24
-5955.65
-2981
-2783.98
-5369.31
-6683.61
-7410.8
-7844.28
-8120.3
-8307.36
-8442.53
-8547.23
-8634.55
-8712.88
-8787.84
-8863.32
-8942.07
-9026.1
-9116.88
-9215.48
-9322.65
-9438.87
-9564.36
-9699.12
-9842.91
-9995.25
-10155.4
-10322.5
-10495.1
-10671.7
-10850.6
-11029.3
-11205.5
-11376.1
-11537.7
-11686.6
-11818.6
-11928.8
-12012.2
-12063.3
-12076
-12044
-11960.7
-11818.8
-11610.3
-11325.8
-10952.4
-10470.8
-9848.01
-9021.57
-7863.15
-6088.91
-3025.85
-2789.41
-5385.42
-6709.93
-7446.69
-7889.06
-8173.39
-8368.34
-8511.21
-8623.66
-8719.02
-8805.9
-8890.13
-8975.76
-9065.74
-9162.19
-9266.73
-9380.5
-9504.35
-9638.78
-9784.06
-9940.18
-10106.9
-10283.6
-10469.5
-10663.4
-10864
-11069.4
-11277.4
-11485.5
-11690.8
-11889.7
-12078.4
-12252.6
-12407.1
-12536.7
-12635.3
-12696.6
-12713.6
-12679.3
-12586
-12425.7
-12189.9
-11868.6
-11448.7
-10911.1
-10223.1
-9323.18
-8084.14
-6223.82
-3071.22
-2793.42
-5397.36
-6729.61
-7473.83
-7923.42
-8214.79
-8416.73
-8566.73
-8686.61
-8789.89
-8885.4
-8979.11
-9075.27
-9176.95
-9286.44
-9405.43
-9535.21
-9676.65
-9830.35
-9996.57
-10175.3
-10366.3
-10568.8
-10782
-11004.6
-11234.9
-11470.8
-11710
-11949.4
-12185.8
-12415
-12632.8
-12833.9
-13012.8
-13163.2
-13278.3
-13350.8
-13372.9
-13336.5
-13233
-13053.9
-12789.7
-12430
-11961.8
-11365.8
-10610.2
-9634.05
-8311.7
-6362.63
-3117.87
-2796.53
-5406.68
-6745.09
-7495.42
-7951.11
-8248.66
-8456.99
-8613.7
-8740.8
-8851.97
-8956.18
-9059.6
-9166.6
-9280.42
-9403.46
-9537.54
-9684.02
-9843.88
-10017.8
-10205.9
-10408.4
-10624.9
-10854.6
-11096.5
-11349.2
-11610.8
-11879
-12151
-12423.5
-12692.6
-12954
-13202.4
-13432.3
-13637
-13809.7
-13942.5
-14027.2
-14054.9
-14016.7
-13903
-13704.4
-13410.8
-13011.5
-12493
-11836.5
-11010.6
-9955.54
-8546.94
-6506.08
-3166.08
-2799.07
-5414.32
-6757.85
-7513.4
-7974.45
-8277.6
-8491.88
-8655.02
-8789.19
-8908.21
-9021.2
-9134.49
-9252.59
-9378.87
-9515.87
-9665.53
-9829.29
-10008.2
-10203
-10414
-10641.1
-10884
-11141.9
-11413.7
-11697.7
-11991.9
-12293.7
-12599.9
-12907
-13210.4
-13505.3
-13785.9
-14045.8
-14277.8
-14473.8
-14625.3
-14723
-14757
-14717.2
-14593.3
-14374.8
-14051.1
-13610.8
-13040.5
-12321.6
-11423.3
-10286.8
-8789.29
-6653.85
-3215.73
-2801.24
-5420.84
-6768.82
-7528.96
-7994.86
-8303.18
-8523.1
-8692.47
-8833.56
-8960.38
-9082.18
-9205.41
-9334.76
-9473.71
-9624.94
-9790.49
-9971.91
-10170.3
-10386.5
-10620.8
-10873.1
-11143.2
-11430
-11732.5
-12048.7
-12376.4
-12712.7
-13054.2
-13396.7
-13735.6
-14065.1
-14378.9
-14669.9
-14930
-15150.4
-15321.4
-15432.6
-15473.3
-15432.3
-15298.1
-15059.5
-14705.1
-14223.1
-13600
-12817.4
-11845
-10625.3
-9036.92
-6804.83
-3266.47
-2803.14
-5426.59
-6778.52
-7542.83
-8013.18
-8326.37
-8551.66
-8727.04
-8874.92
-9009.43
-9139.97
-9273.14
-9413.75
-9565.42
-9730.95
-9912.49
-10111.7
-10329.8
-10567.5
-10825.3
-11103.2
-11400.6
-11716.8
-12050.2
-12399
-12760.6
-13131.9
-13509.2
-13887.8
-14262.6
-14627.2
-14974.9
-15297.5
-15586.3
-15831.5
-16022.5
-16147.8
-16195.5
-16153.4
-16009.1
-15750.4
-15365.2
-14841.3
-14164.9
-13317.9
-12270.8
-10967.1
-9286.99
-6957.3
-3317.7
-2804.85
-5431.76
-6787.29
-7555.41
-8029.91
-8347.68
-8578.09
-8759.26
-8913.74
-9055.76
-9194.89
-9337.84
-9489.56
-9653.81
-9833.5
-10030.9
-10247.7
-10485.3
-10744.5
-11025.7
-11328.9
-11653.6
-11998.9
-12363.2
-12744.4
-13139.8
-13546.1
-13959
-14373.6
-14784.2
-15184
-15565.5
-15919.8
-16237.4
-16507.5
-16718.5
-16858.1
-16913
-16870.1
-16716
-16437.4
-16021.7
-15456.2
-14726.9
-13815.9
-12694.5
-11307.3
-9535.86
-7109.04