/*--------------------------------*- C++ -*----------------------------------*\
| =========                 |                                                 |
| \\      /  F ield         | OpenFOAM: The Open Source CFD Toolbox           |
|  \\    /   O peration     | Version:  5.x                                   |
|   \\  /    A nd           | Web:      www.OpenFOAM.org                      |
|    \\/     M anipulation  |                                                 |
\*---------------------------------------------------------------------------*/
FoamFile
{
    version     2.0;
    format      ascii;
    class       volScalarField;
    location    "0.3";
    object      T;
}
// * * * * * * * * * * * * * * * * * * * * * * * * * * * * * * * * * * * * * //

dimensions      [0 0 0 1 0 0 0];

internalField   nonuniform List<scalar> 
25000
(
300.693
301.25
301.549
301.742
301.885
301.999
302.097
302.186
302.272
302.356
302.443
302.534
302.631
302.734
302.844
302.963
303.089
303.223
303.366
303.515
303.67
303.831
303.995
304.162
304.329
304.495
304.658
304.815
304.964
305.102
305.227
305.336
305.426
305.495
305.539
305.554
305.539
305.489
305.403
305.276
305.107
304.894
304.633
304.324
303.964
303.55
303.075
302.521
301.842
300.891
301.25
302.569
303.373
303.925
304.341
304.679
304.971
305.237
305.493
305.748
306.01
306.284
306.574
306.885
307.218
307.574
307.956
308.361
308.789
309.239
309.708
310.193
310.689
311.192
311.697
312.198
312.689
313.163
313.613
314.031
314.409
314.739
315.012
315.22
315.352
315.4
315.355
315.206
314.946
314.565
314.056
313.412
312.628
311.697
310.615
309.372
307.95
306.309
304.355
301.85
301.548
303.371
304.569
305.43
306.095
306.643
307.123
307.565
307.99
308.416
308.854
309.313
309.801
310.324
310.884
311.484
312.126
312.809
313.531
314.289
315.079
315.896
316.733
317.582
318.434
319.279
320.108
320.909
321.668
322.375
323.014
323.572
324.035
324.387
324.612
324.696
324.621
324.374
323.937
323.298
322.443
321.362
320.044
318.483
316.669
314.59
312.226
309.527
306.388
302.56
301.739
303.917
305.421
306.541
307.428
308.172
308.832
309.445
310.039
310.637
311.255
311.904
312.595
313.336
314.131
314.984
315.896
316.867
317.894
318.973
320.097
321.26
322.451
323.66
324.875
326.08
327.262
328.404
329.488
330.497
331.411
332.209
332.872
333.378
333.704
333.828
333.727
333.38
332.764
331.86
330.65
329.118
327.252
325.042
322.479
319.552
316.24
312.498
308.224
303.185
301.878
304.322
306.07
307.407
308.492
309.417
310.249
311.029
311.793
312.566
313.367
314.213
315.115
316.083
317.123
318.24
319.436
320.709
322.056
323.471
324.948
326.475
328.04
329.629
331.226
332.812
334.367
335.87
337.299
338.63
339.836
340.892
341.77
342.441
342.878
343.049
342.925
342.478
341.678
340.5
338.921
336.921
334.485
331.603
328.266
324.466
320.187
315.394
309.996
303.782
301.986
304.642
306.59
308.116
309.376
310.471
311.467
312.413
313.347
314.298
315.288
316.337
317.46
318.666
319.964
321.36
322.854
324.447
326.133
327.905
329.755
331.668
333.631
335.624
337.628
339.619
341.573
343.463
345.261
346.936
348.457
349.79
350.901
351.754
352.313
352.54
352.397
351.849
350.86
349.397
347.433
344.943
341.91
338.324
334.178
329.47
324.193
318.32
311.78
304.382
302.075
304.907
307.026
308.718
310.14
311.393
312.549
313.659
314.765
315.898
317.084
318.346
319.699
321.156
322.727
324.417
326.228
328.16
330.206
332.358
334.605
336.931
339.317
341.742
344.181
346.606
348.987
351.293
353.487
355.534
357.395
359.028
360.393
361.445
362.14
362.432
362.276
361.627
360.442
358.682
356.313
353.308
349.646
345.319
340.323
334.662
328.34
321.344
313.62
305
302.151
305.136
307.407
309.249
310.82
312.226
313.538
314.811
316.091
317.411
318.802
320.285
321.88
323.602
325.461
327.463
329.611
331.902
334.331
336.888
339.558
342.324
345.163
348.049
350.954
353.844
356.684
359.435
362.056
364.504
366.731
368.691
370.332
371.603
372.45
372.818
372.653
371.903
370.515
368.444
365.65
362.101
357.776
352.666
346.773
340.107
332.685
324.509
315.545
305.646
302.22
305.342
307.75
309.73
311.444
312.996
314.463
315.901
317.358
318.872
320.473
322.188
324.038
326.039
328.201
330.534
333.037
335.71
338.546
341.532
344.653
347.886
351.207
354.586
357.987
361.374
364.705
367.934
371.013
373.892
376.515
378.827
380.768
382.278
383.292
383.748
383.581
382.729
381.133
378.737
375.496
371.374
366.349
360.412
353.57
345.843
337.26
327.84
317.569
306.325
302.283
305.531
308.067
310.179
312.029
313.725
315.345
316.95
318.588
320.3
322.121
324.078
326.194
328.486
330.969
333.648
336.527
339.603
342.868
346.309
349.906
353.635
357.467
361.368
365.297
369.213
373.066
376.804
380.373
383.712
386.76
389.45
391.715
393.483
394.682
395.237
395.074
394.121
392.309
389.575
385.866
381.143
375.38
368.572
360.73
351.885
342.078
331.347
319.701
307.04
302.342
305.709
308.367
310.605
312.588
314.426
316.199
317.971
319.794
321.711
323.758
325.965
328.358
330.956
333.772
336.814
340.087
343.585
347.301
351.218
355.316
359.566
363.937
368.387
372.874
377.347
381.752
386.03
390.116
393.945
397.443
400.537
403.148
405.195
406.593
407.259
407.107
406.053
404.02
400.935
396.74
391.388
384.854
377.133
368.243
358.224
347.133
335.027
321.937
307.79
302.398
305.879
308.653
311.014
313.127
315.105
317.033
318.974
320.985
323.111
325.39
327.856
330.534
333.447
336.609
340.028
343.709
347.647
351.831
356.245
360.864
365.658
370.59
375.615
380.684
385.74
390.723
395.565
400.196
404.538
408.512
412.031
415.008
417.351
418.964
419.751
419.615
418.463
416.204
412.759
408.06
402.057
394.721
386.051
376.07
364.829
352.4
338.861
324.267
308.572
302.452
306.042
308.93
311.41
313.651
315.769
317.849
319.961
322.162
324.499
327.015
329.745
332.716
335.951
339.468
343.275
347.375
351.764
356.431
361.357
366.514
371.868
377.38
382.998
388.669
394.329
399.91
405.338
410.533
415.409
419.877
423.84
427.2
429.854
431.693
432.611
432.498
431.249
428.763
424.95
419.735
413.063
404.903
395.255
384.149
371.647
357.838
342.82
326.672
309.379
302.504
306.2
309.198
311.794
314.16
316.416
318.649
320.931
323.322
325.872
328.627
331.622
334.89
338.453
342.329
346.529
351.056
355.904
361.062
366.508
372.213
378.139
384.241
390.465
396.75
403.027
409.22
415.247
421.02
426.445
431.42
435.84
439.595
442.57
444.646
445.702
445.618
444.275
441.561
437.378
431.64
424.288
415.29
404.646
392.393
378.606
363.388
346.861
329.128
310.203
302.555
306.353
309.457
312.165
314.655
317.045
319.428
321.878
324.457
327.22
330.212
333.474
337.037
340.927
345.164
349.758
354.712
360.021
365.671
371.64
377.895
384.395
391.091
397.925
404.828
411.727
418.537
425.169
431.526
437.505
442.994
447.878
452.034
455.337
457.655
458.855
458.803
457.37
454.432
449.879
443.619
435.586
425.746
414.101
400.695
385.614
368.979
350.931
331.602
311.033
302.603
306.499
309.705
312.523
315.13
317.652
320.181
322.795
325.559
328.529
331.755
335.278
339.132
343.345
347.937
352.92
358.296
364.06
370.197
376.682
383.482
390.551
397.835
405.272
412.789
420.304
427.726
434.96
441.897
448.427
454.428
459.774
464.331
467.963
470.524
471.871
471.856
470.337
467.18
462.264
455.49
446.784
436.111
423.476
408.928
392.565
374.524
354.969
334.056
311.856
302.649
306.638
309.941
312.862
315.583
318.23
320.899
323.671
326.613
329.784
333.236
337.011
341.148
345.674
350.61
355.969
361.755
367.961
374.571
381.558
388.887
396.508
404.365
412.39
420.503
428.619
436.639
444.458
451.962
459.03
465.532
471.33
476.282
480.236
483.038
484.53
484.554
482.956
479.589
474.323
467.049
457.691
446.209
432.61
416.951
399.339
379.929
358.905
336.449
312.659
302.692
306.768
310.161
313.18
316.008
318.772
321.574
324.495
327.605
330.966
334.632
338.648
343.052
347.875
353.139
358.856
365.032
371.658
378.718
386.183
394.016
402.164
410.567
419.152
427.835
436.524
445.114
453.493
461.54
469.123
476.104
482.337
487.666
491.931
494.965
496.599
496.664
494.992
491.427
485.829
478.082
468.102
455.85
441.332
424.612
405.809
385.091
362.664
338.734
313.425
302.731
306.887
310.364
313.472
316.397
319.271
322.195
325.253
328.52
332.057
335.921
340.159
344.812
349.911
355.478
361.529
368.066
375.083
382.562
390.472
398.773
407.412
416.323
425.43
434.644
443.867
452.989
461.891
470.443
478.508
485.937
492.576
498.258
502.815
506.068
507.837
507.941
506.203
502.456
496.551
488.364
477.807
464.837
449.464
431.756
411.842
389.906
366.171
340.865
314.141
302.766
306.993
310.545
313.733
316.746
319.718
322.751
325.934
329.34
333.036
337.079
341.518
346.395
351.742
357.585
363.936
370.8
378.17
386.027
394.339
403.065
412.147
421.517
431.096
440.791
450.498
460.102
469.477
478.488
486.99
494.826
501.833
507.838
512.66
516.113
518.005
518.147
516.351
512.441
506.259
497.675
486.596
472.978
456.831
438.229
417.309
394.268
369.348
342.797
314.789
302.796
307.085
310.702
313.959
317.048
320.104
323.233
326.523
330.052
333.886
338.084
342.698
347.77
353.334
359.415
366.028
373.177
380.855
389.041
397.704
406.799
416.268
426.039
436.03
446.145
456.274
466.299
476.088
485.5
494.383
502.576
509.906
516.192
521.247
524.876
526.878
527.054
525.208
521.156
514.734
505.804
494.271
480.087
463.265
443.882
422.084
398.079
372.124
344.484
315.355
302.821
307.161
310.831
314.146
317.298
320.424
323.631
327.011
330.64
334.588
338.915
343.674
348.907
354.651
360.931
367.761
375.147
383.079
391.539
400.493
409.895
419.685
429.79
440.123
450.586
461.066
471.441
481.574
491.32
500.521
509.01
516.609
523.13
528.38
532.155
534.248
534.454
532.568
528.399
521.778
512.562
500.651
485.998
468.614
448.582
426.054
401.248
374.432
345.887
315.826
302.841
307.219
310.93
314.289
317.489
320.669
323.938
327.386
331.093
335.129
339.555
344.425
349.784
355.666
362.099
369.097
376.664
384.794
393.465
402.644
412.283
422.32
432.682
443.28
454.012
464.764
475.409
485.808
495.812
505.259
513.977
521.784
528.488
533.888
537.776
539.941
540.17
538.253
533.995
527.221
517.784
505.582
490.565
472.749
452.215
429.123
403.697
376.216
346.972
316.189
302.854
307.259
310.997
314.386
317.62
320.836
324.146
327.64
331.4
335.496
339.99
344.936
350.379
356.356
362.892
370.004
377.696
385.96
394.775
404.106
413.906
424.113
434.65
445.428
456.343
467.279
478.109
488.689
498.869
508.483
517.357
525.306
532.134
537.637
541.604
543.817
544.062
542.125
537.806
530.927
521.34
508.94
493.677
475.565
454.69
431.213
405.366
377.431
347.711
316.437
302.86
307.279
311.032
314.435
317.685
320.92
324.251
327.769
331.556
335.682
340.21
345.194
350.68
356.705
363.294
370.464
378.218
386.55
395.437
404.846
414.728
425.02
435.645
446.514
457.523
468.553
479.475
490.147
500.416
510.115
519.069
527.089
533.98
539.536
543.541
545.78
546.033
544.085
539.736
532.804
523.141
510.64
495.252
476.991
455.943
432.272
406.211
378.047
348.085
316.563
302.86
307.279
311.032
314.435
317.685
320.92
324.251
327.769
331.556
335.682
340.21
345.194
350.68
356.705
363.294
370.464
378.218
386.55
395.437
404.846
414.728
425.02
435.645
446.514
457.523
468.553
479.475
490.147
500.416
510.115
519.069
527.089
533.98
539.536
543.541
545.78
546.033
544.085
539.736
532.804
523.141
510.64
495.252
476.991
455.943
432.272
406.211
378.047
348.085
316.563
302.854
307.259
310.997
314.386
317.62
320.836
324.146
327.64
331.4
335.496
339.99
344.936
350.379
356.356
362.892
370.004
377.696
385.96
394.775
404.106
413.906
424.113
434.65
445.428
456.343
467.279
478.109
488.689
498.869
508.483
517.357
525.306
532.134
537.637
541.604
543.817
544.062
542.125
537.806
530.927
521.34
508.939
493.676
475.564
454.69
431.213
405.366
377.431
347.711
316.437
302.841
307.219
310.93
314.289
317.489
320.669
323.938
327.386
331.093
335.129
339.555
344.425
349.784
355.666
362.099
369.097
376.664
384.794
393.465
402.644
412.283
422.32
432.682
443.28
454.012
464.764
475.409
485.808
495.812
505.259
513.977
521.784
528.487
533.888
537.776
539.941
540.17
538.253
533.995
527.22
517.783
505.581
490.565
472.748
452.215
429.123
403.697
376.216
346.972
316.189
302.821
307.161
310.831
314.146
317.298
320.424
323.631
327.011
330.64
334.588
338.915
343.674
348.907
354.651
360.931
367.761
375.147
383.079
391.539
400.493
409.895
419.685
429.79
440.123
450.586
461.066
471.441
481.574
491.32
500.521
509.01
516.608
523.13
528.38
532.155
534.248
534.453
532.567
528.399
521.778
512.562
500.651
485.997
468.614
448.582
426.054
401.248
374.432
345.887
315.826
302.796
307.085
310.702
313.959
317.048
320.104
323.233
326.523
330.052
333.886
338.084
342.698
347.77
353.334
359.415
366.028
373.177
380.855
389.041
397.704
406.799
416.268
426.039
436.03
446.144
456.274
466.299
476.088
485.5
494.383
502.576
509.905
516.192
521.247
524.875
526.877
527.053
525.207
521.156
514.733
505.804
494.271
480.087
463.265
443.881
422.083
398.079
372.124
344.484
315.355
302.766
306.993
310.545
313.733
316.746
319.718
322.751
325.934
329.34
333.036
337.079
341.518
346.395
351.742
357.585
363.936
370.8
378.17
386.027
394.339
403.065
412.146
421.517
431.096
440.791
450.498
460.102
469.477
478.488
486.99
494.826
501.833
507.838
512.66
516.112
518.005
518.147
516.35
512.44
506.258
497.674
486.596
472.978
456.83
438.228
417.308
394.268
369.348
342.797
314.789
302.731
306.887
310.364
313.472
316.397
319.271
322.195
325.253
328.52
332.057
335.921
340.159
344.812
349.911
355.478
361.529
368.066
375.083
382.562
390.472
398.773
407.412
416.323
425.43
434.644
443.867
452.989
461.891
470.443
478.508
485.937
492.575
498.258
502.815
506.068
507.837
507.941
506.203
502.456
496.55
488.363
477.807
464.837
449.464
431.756
411.842
389.906
366.171
340.865
314.141
302.692
306.768
310.161
313.18
316.007
318.772
321.574
324.495
327.605
330.966
334.632
338.648
343.052
347.875
353.139
358.856
365.032
371.658
378.718
386.183
394.016
402.164
410.567
419.152
427.835
436.524
445.114
453.493
461.54
469.123
476.104
482.336
487.665
491.93
494.965
496.599
496.663
494.991
491.426
485.828
478.081
468.102
455.849
441.332
424.612
405.809
385.091
362.664
338.734
313.425
302.649
306.638
309.941
312.862
315.583
318.23
320.899
323.671
326.613
329.784
333.236
337.011
341.148
345.674
350.61
355.969
361.755
367.961
374.571
381.558
388.886
396.508
404.365
412.39
420.503
428.618
436.638
444.458
451.962
459.03
465.532
471.33
476.281
480.235
483.038
484.53
484.554
482.955
479.588
474.322
467.049
457.691
446.209
432.61
416.951
399.339
379.929
358.905
336.449
312.659
302.603
306.499
309.705
312.523
315.13
317.652
320.181
322.795
325.559
328.529
331.755
335.278
339.132
343.345
347.937
352.92
358.296
364.06
370.197
376.682
383.482
390.551
397.835
405.272
412.789
420.303
427.726
434.959
441.897
448.426
454.427
459.773
464.331
467.962
470.524
471.87
471.855
470.337
467.18
462.264
455.489
446.784
436.111
423.475
408.928
392.565
374.524
354.969
334.056
311.856
302.555
306.353
309.457
312.165
314.655
317.045
319.428
321.878
324.457
327.22
330.212
333.474
337.037
340.927
345.164
349.758
354.712
360.021
365.671
371.64
377.895
384.395
391.091
397.925
404.828
411.726
418.537
425.169
431.526
437.504
442.993
447.877
452.034
455.337
457.654
458.854
458.803
457.369
454.431
449.878
443.618
435.586
425.745
414.1
400.695
385.614
368.979
350.931
331.602
311.033
302.504
306.2
309.198
311.794
314.16
316.416
318.649
320.931
323.321
325.872
328.627
331.622
334.89
338.453
342.329
346.529
351.056
355.904
361.062
366.508
372.213
378.139
384.241
390.465
396.75
403.026
409.22
415.247
421.02
426.444
431.419
435.84
439.595
442.57
444.646
445.702
445.617
444.274
441.561
437.377
431.64
424.288
415.289
404.645
392.393
378.605
363.388
346.861
329.128
310.203
302.452
306.042
308.93
311.41
313.651
315.769
317.849
319.961
322.162
324.499
327.015
329.744
332.716
335.951
339.468
343.275
347.375
351.764
356.431
361.356
366.514
371.868
377.379
382.998
388.668
394.329
399.91
405.338
410.533
415.409
419.876
423.84
427.2
429.853
431.693
432.611
432.498
431.249
428.763
424.95
419.735
413.062
404.902
395.254
384.148
371.647
357.837
342.82
326.672
309.379
302.398
305.878
308.653
311.014
313.127
315.105
317.033
318.974
320.985
323.111
325.39
327.855
330.534
333.447
336.609
340.028
343.709
347.646
351.831
356.245
360.864
365.658
370.59
375.615
380.684
385.74
390.723
395.565
400.196
404.538
408.511
412.031
415.008
417.35
418.963
419.75
419.615
418.462
416.204
412.759
408.059
402.056
394.721
386.05
376.069
364.828
352.399
338.861
324.267
308.572
302.342
305.709
308.367
310.605
312.588
314.426
316.199
317.971
319.794
321.711
323.758
325.965
328.358
330.956
333.772
336.814
340.087
343.585
347.301
351.218
355.316
359.566
363.936
368.387
372.874
377.347
381.752
386.029
390.116
393.944
397.443
400.537
403.148
405.194
406.593
407.259
407.106
406.053
404.019
400.935
396.739
391.387
384.853
377.132
368.242
358.224
347.132
335.027
321.937
307.79
302.283
305.531
308.067
310.179
312.029
313.725
315.345
316.95
318.588
320.3
322.121
324.078
326.194
328.486
330.969
333.648
336.527
339.603
342.868
346.309
349.905
353.635
357.467
361.367
365.297
369.213
373.065
376.804
380.372
383.712
386.759
389.45
391.714
393.483
394.681
395.236
395.074
394.12
392.308
389.574
385.865
381.142
375.38
368.571
360.73
351.885
342.077
331.347
319.701
307.04
302.22
305.342
307.75
309.73
311.444
312.996
314.463
315.901
317.358
318.871
320.473
322.188
324.038
326.039
328.201
330.533
333.037
335.71
338.546
341.532
344.653
347.886
351.207
354.585
357.987
361.374
364.705
367.934
371.013
373.892
376.515
378.827
380.768
382.277
383.292
383.748
383.581
382.729
381.132
378.736
375.496
371.374
366.349
360.411
353.57
345.843
337.259
327.84
317.569
306.325
302.151
305.136
307.407
309.248
310.82
312.226
313.537
314.811
316.091
317.411
318.801
320.285
321.88
323.602
325.461
327.463
329.611
331.902
334.331
336.888
339.558
342.324
345.163
348.049
350.953
353.843
356.683
359.435
362.056
364.503
366.731
368.691
370.332
371.603
372.449
372.818
372.653
371.902
370.515
368.444
365.65
362.101
357.776
352.666
346.772
340.107
332.684
324.509
315.545
305.646
302.075
304.907
307.026
308.718
310.14
311.393
312.549
313.659
314.765
315.898
317.084
318.346
319.698
321.156
322.727
324.417
326.228
328.16
330.206
332.358
334.605
336.931
339.317
341.742
344.181
346.606
348.987
351.293
353.487
355.534
357.394
359.028
360.393
361.445
362.14
362.432
362.276
361.627
360.442
358.682
356.313
353.307
349.646
345.319
340.323
334.662
328.34
321.344
313.62
305
301.986
304.642
306.59
308.115
309.376
310.471
311.467
312.413
313.347
314.298
315.288
316.337
317.459
318.666
319.964
321.36
322.854
324.447
326.132
327.905
329.755
331.668
333.631
335.624
337.628
339.619
341.573
343.463
345.261
346.936
348.457
349.79
350.901
351.754
352.313
352.54
352.397
351.849
350.86
349.397
347.432
344.943
341.91
338.324
334.178
329.47
324.193
318.32
311.78
304.382
301.878
304.322
306.07
307.407
308.491
309.417
310.248
311.029
311.793
312.566
313.367
314.213
315.115
316.083
317.123
318.24
319.436
320.709
322.056
323.471
324.948
326.475
328.04
329.629
331.226
332.811
334.367
335.87
337.299
338.629
339.836
340.892
341.77
342.441
342.878
343.049
342.925
342.478
341.678
340.5
338.921
336.921
334.485
331.602
328.265
324.466
320.187
315.394
309.996
303.782
301.739
303.917
305.421
306.541
307.428
308.172
308.832
309.445
310.039
310.637
311.255
311.904
312.595
313.336
314.131
314.984
315.896
316.867
317.894
318.973
320.097
321.26
322.451
323.66
324.874
326.08
327.262
328.404
329.488
330.497
331.411
332.209
332.872
333.378
333.704
333.828
333.727
333.38
332.764
331.86
330.649
329.118
327.252
325.042
322.479
319.552
316.24
312.498
308.224
303.185
301.548
303.371
304.569
305.43
306.095
306.643
307.123
307.565
307.99
308.416
308.854
309.313
309.801
310.323
310.884
311.484
312.126
312.809
313.531
314.289
315.079
315.896
316.733
317.581
318.434
319.279
320.108
320.909
321.668
322.375
323.014
323.572
324.035
324.387
324.612
324.696
324.621
324.373
323.937
323.298
322.443
321.362
320.044
318.483
316.669
314.59
312.226
309.527
306.388
302.56
301.25
302.569
303.373
303.925
304.341
304.679
304.971
305.237
305.493
305.748
306.01
306.283
306.574
306.885
307.218
307.574
307.956
308.361
308.789
309.239
309.708
310.193
310.689
311.192
311.697
312.198
312.689
313.163
313.613
314.031
314.409
314.739
315.012
315.22
315.352
315.4
315.355
315.206
314.945
314.565
314.056
313.412
312.628
311.697
310.615
309.372
307.949
306.309
304.355
301.85
300.693
301.25
301.549
301.742
301.885
301.999
302.097
302.186
302.272
302.356
302.443
302.534
302.631
302.734
302.844
302.963
303.089
303.223
303.366
303.515
303.67
303.831
303.995
304.162
304.329
304.495
304.658
304.815
304.964
305.102
305.227
305.336
305.426
305.495
305.539
305.554
305.539
305.489
305.403
305.276
305.107
304.894
304.633
304.324
303.964
303.55
303.075
302.521
301.842
300.891
300.253
300.602
300.839
301.011
301.144
301.253
301.348
301.436
301.52
301.604
301.69
301.781
301.877
301.98
302.089
302.207
302.333
302.467
302.608
302.757
302.911
303.071
303.235
303.4
303.567
303.732
303.893
304.049
304.197
304.335
304.459
304.567
304.656
304.724
304.767
304.782
304.767
304.717
304.631
304.505
304.337
304.125
303.866
303.56
303.205
302.798
302.334
301.805
301.19
300.451
300.602
301.519
302.182
302.677
303.066
303.39
303.674
303.936
304.188
304.441
304.701
304.973
305.262
305.571
305.903
306.258
306.637
307.041
307.467
307.915
308.382
308.864
309.357
309.858
310.36
310.858
311.346
311.817
312.264
312.679
313.054
313.381
313.652
313.857
313.987
314.034
313.987
313.839
313.579
313.2
312.694
312.055
311.277
310.355
309.286
308.062
306.673
305.098
303.293
301.198
300.838
302.18
303.193
303.973
304.599
305.126
305.593
306.027
306.447
306.869
307.304
307.761
308.246
308.766
309.324
309.922
310.561
311.241
311.959
312.714
313.5
314.313
315.145
315.989
316.837
317.678
318.501
319.296
320.051
320.752
321.386
321.94
322.398
322.746
322.968
323.049
322.973
322.725
322.29
321.654
320.804
319.73
318.423
316.876
315.083
313.036
310.722
308.117
305.176
301.844
301.008
302.669
303.964
304.988
305.827
306.545
307.188
307.791
308.379
308.972
309.585
310.23
310.918
311.655
312.447
313.296
314.204
315.171
316.193
317.267
318.386
319.543
320.728
321.93
323.137
324.336
325.51
326.645
327.722
328.723
329.63
330.421
331.078
331.578
331.899
332.02
331.917
331.569
330.955
330.055
328.851
327.329
325.478
323.288
320.754
317.868
314.621
310.992
306.945
302.443
301.136
303.047
304.573
305.807
306.837
307.732
308.544
309.312
310.068
310.834
311.63
312.47
313.368
314.331
315.367
316.48
317.67
318.937
320.278
321.687
323.156
324.675
326.232
327.813
329.4
330.976
332.522
334.016
335.435
336.755
337.952
338.999
339.869
340.533
340.963
341.129
341.003
340.554
339.757
338.584
337.013
335.026
332.609
329.752
326.45
322.7
318.498
313.833
308.682
303.028
301.24
303.353
305.073
306.488
307.691
308.751
309.726
310.658
311.582
312.525
313.509
314.553
315.669
316.87
318.163
319.552
321.04
322.625
324.303
326.068
327.908
329.812
331.764
333.746
335.738
337.718
339.66
341.537
343.323
344.985
346.494
347.816
348.916
349.76
350.311
350.531
350.385
349.836
348.849
347.392
345.438
342.964
339.954
336.398
332.295
327.645
322.453
316.721
310.441
303.619
301.326
303.61
305.497
307.075
308.435
309.653
310.785
311.88
312.974
314.098
315.278
316.532
317.879
319.33
320.894
322.576
324.38
326.302
328.339
330.481
332.716
335.03
337.404
339.815
342.24
344.651
347.017
349.307
351.487
353.518
355.364
356.983
358.335
359.376
360.061
360.346
360.185
359.534
358.351
356.599
354.242
351.256
347.621
343.329
338.381
332.787
326.559
319.713
312.262
304.231
301.401
303.835
305.87
307.596
309.104
310.471
311.759
313.016
314.283
315.594
316.976
318.451
320.039
321.753
323.604
325.597
327.735
330.016
332.434
334.978
337.635
340.387
343.21
346.081
348.968
351.841
354.663
357.396
359.999
362.428
364.638
366.581
368.206
369.463
370.297
370.656
370.486
369.734
368.349
366.286
363.506
359.979
355.685
350.616
344.777
338.185
330.866
322.85
314.169
304.87
301.468
304.037
306.208
308.071
309.72
311.233
312.673
314.094
315.538
317.041
318.633
320.339
322.18
324.172
326.325
328.647
331.14
333.8
336.623
339.594
342.699
345.916
349.219
352.579
355.961
359.327
362.636
365.844
368.902
371.758
374.361
376.653
378.575
380.068
381.068
381.513
381.339
380.484
378.89
376.504
373.28
369.183
364.192
358.302
351.521
343.875
335.404
326.154
316.177
305.544
301.531
304.224
306.522
308.515
310.299
311.955
313.548
315.134
316.758
318.459
320.269
322.216
324.322
326.605
329.076
331.744
334.61
337.672
340.921
344.345
347.924
351.634
355.445
359.324
363.23
367.122
370.95
374.663
378.207
381.521
384.544
387.211
389.454
391.202
392.384
392.926
392.755
391.799
389.989
387.266
383.576
378.881
373.157
366.401
358.627
349.871
340.185
329.634
318.292
306.254
301.589
304.401
306.819
308.937
310.853
312.65
314.396
316.149
317.957
319.861
321.897
324.093
326.475
329.061
331.865
334.894
338.151
341.634
345.332
349.23
353.307
357.535
361.881
366.307
370.767
375.213
379.589
383.838
387.896
391.695
395.165
398.232
400.818
402.842
404.221
404.871
404.709
403.651
401.621
398.548
394.373
389.053
382.562
374.899
366.084
356.162
345.202
333.286
320.511
306.998
301.645
304.57
307.104
309.344
311.389
313.326
315.225
317.146
319.141
321.253
323.521
325.974
328.641
331.54
334.688
338.093
341.756
345.676
349.84
354.232
358.828
363.597
368.501
373.498
378.537
383.562
388.512
393.322
397.919
402.229
406.17
409.658
412.607
414.923
416.514
417.284
417.136
415.979
413.723
410.291
405.614
399.646
392.359
383.752
373.853
362.718
350.43
337.092
322.824
307.774
301.699
304.732
307.379
309.737
311.91
313.986
316.038
318.129
320.312
322.636
325.138
327.855
330.812
334.034
337.535
341.325
345.406
349.775
354.419
359.32
364.451
369.777
375.258
380.844
386.481
392.106
397.651
403.042
408.199
413.038
417.47
421.398
424.726
427.35
429.164
430.062
429.935
428.68
426.197
422.398
417.208
410.574
402.468
392.889
381.873
369.486
355.827
341.021
325.211
308.575
301.751
304.89
307.646
310.12
312.418
314.63
316.834
319.094
321.467
324.003
326.743
329.724
332.977
336.524
340.383
344.565
349.071
353.896
359.029
364.448
370.123
376.018
382.086
388.274
394.521
400.759
406.912
412.898
418.629
424.012
428.946
433.328
437.047
439.988
442.036
443.069
442.97
441.62
438.909
434.74
429.03
421.72
412.78
402.212
390.057
376.393
361.336
345.031
327.649
309.392
301.801
305.041
307.903
310.49
312.91
315.257
317.61
320.037
322.598
325.345
328.322
331.568
335.115
338.988
343.206
347.779
352.711
357.995
363.618
369.556
375.779
382.245
388.904
395.697
402.559
409.414
416.18
422.767
429.078
435.01
440.454
445.294
449.411
452.677
454.963
456.138
456.069
454.628
451.693
447.155
440.925
432.938
423.161
411.598
398.298
383.35
366.885
349.071
330.104
310.216
301.849
305.187
308.15
310.846
313.384
315.861
318.36
320.95
323.695
326.649
329.859
333.365
337.202
341.397
345.968
350.928
356.279
362.016
368.123
374.576
381.34
388.371
395.615
403.009
410.48
417.947
425.321
432.504
439.391
445.87
451.822
457.12
461.634
465.225
467.751
469.07
469.036
467.508
464.354
459.455
452.712
444.056
433.451
420.905
406.47
390.249
372.389
353.079
332.539
311.033
301.895
305.325
308.385
311.184
313.835
316.437
319.075
321.823
324.746
327.899
331.334
335.092
339.21
343.716
348.63
353.965
359.724
365.9
372.478
379.43
386.72
394.3
402.113
410.091
418.155
426.219
434.186
441.951
449.401
456.414
462.862
468.609
473.511
477.422
480.186
481.648
481.651
480.042
476.678
471.43
464.19
454.885
443.476
429.972
414.433
396.972
377.753
356.985
334.914
311.83
301.937
305.455
308.605
311.501
314.258
316.977
319.747
322.644
325.734
329.077
332.725
336.722
341.106
345.908
351.148
356.84
362.986
369.581
376.606
384.034
391.825
399.93
408.285
416.82
425.45
434.084
442.617
450.938
458.925
466.45
473.373
479.549
484.826
489.044
492.037
493.639
493.68
491.997
488.435
482.855
475.145
465.221
453.046
438.63
422.038
403.393
382.876
360.716
337.181
312.591
301.977
305.573
308.807
311.792
314.646
317.474
320.366
323.4
326.645
330.163
334.009
338.227
342.859
347.935
353.478
359.501
366.008
372.992
380.433
388.303
396.561
405.153
414.013
423.066
432.224
441.388
450.45
459.29
467.779
475.781
483.149
489.727
495.355
499.86
503.07
504.803
504.883
503.133
499.388
493.502
485.353
474.856
461.968
446.702
429.128
409.381
387.654
364.195
339.296
313.3
302.012
305.679
308.987
312.052
314.994
317.919
320.92
324.078
327.463
331.139
335.162
339.581
344.436
349.76
355.576
361.898
368.731
376.065
383.883
392.153
400.832
409.865
419.182
428.705
438.34
447.985
457.525
466.834
475.779
484.214
491.985
498.93
504.875
509.644
513.05
514.905
515.021
513.212
509.304
503.142
494.598
483.581
470.049
454.014
435.552
414.806
391.983
367.348
341.213
313.943
302.042
305.771
309.143
312.277
315.295
318.305
321.401
324.665
328.172
331.985
336.163
340.756
345.805
351.345
357.399
363.982
371.097
378.738
386.884
395.503
404.549
413.966
423.682
433.614
443.666
453.731
463.689
473.409
482.752
491.566
499.69
506.954
513.179
518.178
521.757
523.72
523.868
522.008
517.959
511.557
502.67
491.201
477.106
460.4
441.163
419.545
395.765
370.102
342.887
314.505
302.067
305.847
309.272
312.463
315.543
318.623
321.797
325.151
328.758
332.685
336.992
341.728
346.939
352.657
358.908
365.707
373.058
380.953
389.371
398.279
407.631
417.367
427.414
437.687
448.085
458.498
468.803
478.865
488.539
497.668
506.086
513.616
520.074
525.265
528.989
531.042
531.218
529.318
525.152
518.552
509.379
497.534
482.973
465.709
445.828
423.485
398.91
372.393
344.28
314.972
302.086
305.905
309.371
312.606
315.734
318.868
322.103
325.524
329.209
333.224
337.629
342.477
347.812
353.668
360.071
367.037
374.57
382.66
391.288
400.42
410.007
419.99
430.293
440.828
451.494
462.176
472.75
483.076
493.006
502.378
511.024
518.76
525.398
530.738
534.575
536.698
536.896
534.965
530.709
523.956
514.563
502.429
487.507
469.812
449.433
426.531
401.34
374.163
345.356
315.333
302.099
305.945
309.438
312.703
315.864
319.034
322.31
325.778
329.515
333.59
338.062
342.986
348.405
354.355
360.862
367.941
375.597
383.821
392.592
401.875
411.623
421.774
432.251
442.965
453.813
464.679
475.435
485.941
496.045
505.584
514.384
522.262
529.022
534.464
538.377
540.548
540.762
538.81
534.493
527.636
518.093
505.762
490.595
472.607
451.889
428.605
402.996
375.369
346.089